ITEM: TIMESTEP
215
ITEM: NUMBER OF ATOMS
196
ITEM: BOX BOUNDS ff ff ff
0 60.9
60.9 0
60.9 0
ITEM: ATOMS id x y z AsphericalShapeX AsphericalShapeY AsphericalShapeZ OrientationX OrientationY OrientationZ OrientationW
1 40.613137992829145 58.33393854679343 18.782155714067567 1.5246984312970897 0.5082328104323633 0.5082328104323633 0.0 -0.0 0.7863642711635499 0.6177630881150306
2 22.051824134216364 5.986385070873899 26.08213432638388 1.5400219052845991 0.513340635094866 0.513340635094866 0.0 -0.0 0.8896314041555925 0.4566792799549252
3 12.651490955193335 19.14094555426497 52.76286377661791 1.5554993827459898 0.5184997942486643 0.5184997942486643 0.0 0.0 0.631512325711268 0.7753658378305981
4 27.22931370710851 44.91604502184236 36.04697973700347 1.571132411441907 0.5237108038139658 0.5237108038139658 0.0 0.0 0.5765741652112841 0.8170448164029381
5 59.36896379897912 16.559249354380125 27.96124349828382 1.5869225546882537 0.5289741848960802 0.5289741848960802 0.0 -0.0 0.8873914294477543 0.4610167577677315
6 25.273223095737258 13.115969917035725 19.95189120669586 1.602871391512489 0.5342904638374983 0.5342904638374983 0.0 0.0 0.643710445538684 0.7652691437033046
7 49.099381325412466 2.4959660508390815 21.980196234335107 1.618980516811632 0.5396601722705431 0.5396601722705431 0.0 -0.0 0.7603958793842515 0.6494598575858641
8 49.59772209742376 36.75086477235528 4.791202020450406 1.6352515415116058 0.5450838471705322 0.5450838471705322 0.0 -0.0 0.7854601334426244 0.6189122545016335
9 48.876528806277655 0.15482745160203115 57.47911853601168 1.651686092728436 0.5505620309094801 0.5505620309094801 0.0 -0.0 0.7176002965020949 0.6964551776389529
10 27.660654668682955 59.047203985250974 14.739517994474264 1.6682858139309444 0.5560952713103161 0.5560952713103161 0.0 0.0 0.38534345666417513 0.9227732226317065
11 22.58783344129997 1.4286322506768998 4.999263508639391 1.685052365105107 0.5616841217017027 0.5616841217017027 0.0 0.0 0.49983922045674145 0.866118209999765
12 11.839365877797274 58.48141514412856 18.94369437988737 1.701987422919987 0.5673291409733245 0.5673291409733245 0.0 0.0 0.2746680171135514 0.9615391205639581
13 21.994314623163827 53.82597703126971 41.509775883287126 1.7190926808954776 0.5730308936318258 0.5730308936318258 0.0 -0.0 0.7886508549344257 0.614841303924191
14 22.944946451329574 42.984735416515754 17.47913074418539 1.7363698495716522 0.5787899498572152 0.5787899498572152 0.0 -0.0 0.7750680292508737 0.6318777967559605
15 21.67378914129437 59.31344237199635 24.77206980743093 1.753820656679759 0.5846068855599172 0.5846068855599172 0.0 0.0 0.6340811782098568 0.7732664866913604
16 21.385013286990382 34.47835660919649 48.92655121924233 1.77144684731505 0.59048228243835 0.59048228243835 0.0 -0.0 0.7629176367612683 0.6464956918020424
17 33.66698219576616 36.92995837363714 39.76388118517898 1.7892501841112827 0.5964167280370976 0.5964167280370976 0.0 0.0 0.6579222258448839 0.7530858813836
18 53.31996738072388 42.400996696182844 0.45316398095995364 1.8072324474169825 0.6024108158056642 0.6024108158056642 0.0 0.0 0.506211649243881 0.8624092799650234
19 18.478488212428022 14.189364632471436 39.711300095357814 1.825395435473454 0.6084651451578178 0.6084651451578178 0.0 0.0 0.6434542777811493 0.7654845474633303
20 17.594811176296613 53.78619003993577 5.732126176082523 1.843740964594639 0.6145803215315493 0.6145803215315493 0.0 -0.0 0.7861857262579329 0.6179902942832407
21 38.657898724005165 24.121743470319295 44.42480049770613 1.862270869348749 0.6207569564495798 0.6207569564495798 0.0 0.0 0.6069811502172251 0.7947162281474907
22 50.240161327962554 57.338619335152906 59.33914769722305 1.8809870027416677 0.6269956675805596 0.6269956675805596 0.0 -0.0 0.8910647246123514 0.45387625687131333
23 39.976257644498766 1.744648458823871 45.16097486388167 1.8998912364023834 0.6332970788007916 0.6332970788007916 0.0 -0.0 0.7582829367961579 0.651925599868416
24 23.099312327191733 6.326554766044638 50.3948854300532 1.9189854607699754 0.6396618202566584 0.6396618202566584 0.0 0.0 0.5255054740936084 0.8507902189715464
25 9.363380739658886 6.856986141265519 16.16801677821497 1.938271585282794 0.646090528427598 0.646090528427598 0.0 0.0 0.6637035342538496 0.7479957343587923
26 55.6418421620179 20.8770366461871 58.27512996992245 1.9577515385693893 0.6525838461897967 0.6525838461897967 0.0 0.0 0.5361151400853296 0.8441448670526212
27 58.790401662020514 29.27859932413514 15.374931532441208 1.9774272686412993 0.659142422880433 0.659142422880433 0.0 -0.0 0.7297620279401082 0.6837012378054764
28 2.6014013468004142 0.5830590572088393 35.31769803485793 1.9973007430879333 0.6657669143626405 0.6657669143626405 0.0 -0.0 0.9828164757017253 0.18458541407500267
29 43.506305070594784 35.788744475963576 25.464271509163634 2.0173739492733036 0.6724579830910973 0.6724579830910973 0.0 -0.0 0.8740853421614372 0.4857723897243679
30 16.63507276320842 9.629202478040346 29.98854243559973 2.037648894534746 0.6792162981782446 0.6792162981782446 0.0 -0.0 0.8433777540022546 0.5373210995802349
31 42.15496993551322 49.75668758538366 49.580263928829766 2.058127606383692 0.6860425354612271 0.6860425354612271 0.0 0.0 0.6952778540174372 0.7187410560924617
32 12.561091293375686 49.530654648216725 46.89795967689417 2.0788121327083826 0.6929373775694565 0.6929373775694565 0.0 0.0 0.6353234605105568 0.7722461398575527
33 34.04757832232063 8.322142343298161 22.161922315785468 2.0997045419786984 0.6999015139928959 0.6999015139928959 0.0 0.0 0.6411270229476993 0.7674347792784871
34 2.845848086348324 23.078855599748596 53.08617238702943 2.120806923452968 0.7069356411509858 0.7069356411509858 0.0 -0.0 0.7453722743584635 0.6666484625480594
35 32.98106295240283 35.41295607929045 45.54843997712302 2.14212138738692 0.7140404624623101 0.7140404624623101 0.0 -0.0 0.7109313362059317 0.7032614273514853
36 23.923200245909136 33.67966705981243 23.754251667783144 2.1636500652447372 0.7212166884149085 0.7212166884149085 0.0 -0.0 0.739632735620696 0.6730107104632479
37 4.7519183489810874 48.10121297974362 3.0050026203135696 2.1853951099121227 0.7284650366373714 0.7284650366373714 0.0 0.0 0.5163603530767541 0.8563714064414165
38 11.38885547840296 5.721505441495764 17.521883856118297 2.2073586959116542 0.7357862319705478 0.7357862319705478 0.0 0.0 0.5145463711011363 0.8574625542766586
39 12.583521929106901 22.01372465958871 3.8687711234515865 2.2295430196202526 0.7431810065400843 0.7431810065400843 0.0 0.0 0.5880831456971182 0.8088004783300898
40 53.57679340174875 45.25276430657862 20.07732022801992 2.2519502994887786 0.7506500998295917 0.7506500998295917 0.0 -0.0 0.8608342640850161 0.5088854191045453
41 53.299228133069676 18.02039301847421 57.05961629488254 2.2745827762638844 0.7581942587546296 0.7581942587546296 0.0 0.0 0.5813114541301716 0.8136811373609846
42 58.12587801731835 9.397324150987195 33.11088627309022 2.2974427132121096 0.7658142377373699 0.7658142377373699 0.0 0.0 0.6858728758951139 0.7277213739552836
43 54.774690495698124 9.694206502949791 26.309511160638174 2.3205323963461946 0.7735107987820683 0.7735107987820683 0.0 -0.0 0.8971229945165649 0.4417808650333688
44 36.83185115633419 25.450293101559595 36.98181667477365 2.343854134653702 0.7812847115512337 0.7812847115512337 0.0 -0.0 0.7662793896249596 0.6425075073771507
45 32.27672361798452 16.30655336563033 18.794629812205006 2.367410260327877 0.7891367534426248 0.7891367534426248 0.0 -0.0 0.8021859139948743 0.5970743332184094
46 9.346748501415519 47.383888179917996 16.13719903746196 2.391203129000958 0.7970677096669863 0.7970677096669863 0.0 0.0 0.6689296931602822 0.7433256793683982
47 48.8689329819755 13.444021433910956 23.96827252579924 2.4152351199795925 0.805078373326531 0.805078373326531 0.0 -0.0 0.8121614142020023 0.5834328044268712
48 44.23012566174909 13.17962945951492 25.839651319550182 2.4395086364829477 0.8131695454943169 0.8131695454943169 0.0 0.0 0.43861391052531945 0.8986756019241242
49 20.03126134403689 34.35402034812026 1.949884793634797 2.4640261058828608 0.8213420352942854 0.8213420352942854 0.0 -0.0 0.7611420715427216 0.6485851886434459
50 29.369972029962298 37.84287146087498 52.2774768709937 2.4887899799467363 0.82959665998225 0.82959665998225 0.0 0.0 0.5689873473401131 0.8223462765568174
51 0.48857561158805207 30.87337580008225 41.9303257180697 2.5138027350826113 0.837934245027533 0.837934245027533 0.0 -0.0 0.9816329176571261 0.1907794930592849
52 25.85671280199789 0.464776249246576 32.9874484041559 2.5390668725868206 0.8463556241956125 0.8463556241956125 0.0 -0.0 0.8312938914163103 0.5558331279205367
53 24.100095771943213 35.11917481174892 3.9604883080191464 2.5645849188941976 0.8548616396313969 0.8548616396313969 0.0 0.0 0.4937832216878833 0.8695850332081013
54 24.972881152319527 40.46675237344822 32.62161620205402 2.590359425830621 0.8634531419435374 0.8634531419435374 0.0 -0.0 0.7425013715714329 0.6698445440656666
55 21.57464630777755 58.768910280921226 5.47999060083954 2.590359425830621 0.8634531419435374 0.8634531419435374 0.0 -0.0 0.899222239431846 0.4374921303419936
56 42.83113900320041 19.460938519454103 39.60190635000465 2.6163929708682634 0.8721309902894269 0.8721309902894269 0.0 0.0 0.591041689671776 0.8066410112744902
57 49.75197036703237 7.227389651109101 44.722843183762386 2.6163929708682634 0.8721309902894269 0.8721309902894269 0.0 0.0 0.6906372933410847 0.7232013060320761
58 40.40231378981207 49.51217288956305 22.37361339956414 2.642688157383339 0.8808960524611094 0.8808960524611094 0.0 -0.0 0.9778925487455288 0.20910801779935065
59 31.227031220287213 47.519461379436436 42.54317622133139 2.642688157383339 0.8808960524611094 0.8808960524611094 0.0 -0.0 0.8334397726994561 0.5526103014626843
60 32.161086527011804 28.403336513068837 15.355819934471285 2.6692476149163906 0.8897492049721302 0.8897492049721302 0.0 -0.0 0.8251393648538317 0.5649292243888745
61 16.614884587522795 27.33827726323232 36.36663419877469 2.6692476149163906 0.8897492049721302 0.8897492049721302 0.0 -0.0 0.8342848482439009 0.5513336485202505
62 2.5953296960943586 48.94082261610574 20.73666232386683 2.6960739994353045 0.8986913331451039 0.8986913331451039 0.0 0.0 0.6993489688984815 0.7147803996337831
63 34.052893268727246 45.497548236397556 6.310857611155064 2.6960739994353045 0.8986913331451039 0.8986913331451039 0.0 0.0 0.6638694557235675 0.747848477806363
64 26.185150027831163 60.80082903313364 57.53503398092232 2.723169993600934 0.9077233312003051 0.9077233312003051 0.0 0.0 0.5469534661185369 0.8371630103515794
65 14.217392105924315 3.23687669487274 17.38285409837493 2.723169993600934 0.9077233312003051 0.9077233312003051 0.0 0.0 0.534266604389083 0.8453160328744268
66 47.201612660395206 22.55573156896069 19.802941751311813 2.750538307035215 0.9168461023450712 0.9168461023450712 0.0 0.0 0.49259387534365895 0.8702593142126752
67 58.30933997122762 58.65708648792318 13.714557882411944 2.750538307035215 0.9168461023450712 0.9168461023450712 0.0 -0.0 0.7991221049958454 0.6011687461162707
68 25.819006678722364 6.990832864700126 58.19645818673601 2.7781816765923057 0.9260605588641003 0.9260605588641003 0.0 -0.0 0.8113628171424923 0.5845428803420658
69 45.46034593367289 55.740818717261504 60.33989774188782 2.7781816765923057 0.9260605588641003 0.9260605588641003 0.0 0.0 0.69974083585519 0.7143967823532522
70 27.95918242364135 57.78517494597986 24.84797055836584 2.80610286663224 0.9353676222107441 0.9353676222107441 0.0 -0.0 0.9226100212719841 0.3857340387475665
71 44.051996995960465 7.029761805514464 40.20948819408318 2.80610286663224 0.9353676222107441 0.9353676222107441 0.0 -0.0 0.8908476943010929 0.4543020862360491
72 57.992426031084214 53.239390443313816 8.12221398788958 2.8343046692972664 0.9447682230990819 0.9447682230990819 0.0 -0.0 0.9180976465577227 0.39635427509384946
73 6.049334928529504 56.98173089412479 46.90239784973826 2.8343046692972664 0.9447682230990819 0.9447682230990819 0.0 0.0 0.6852526383261238 0.7283054453092375
74 14.053187728299491 23.071730726475675 10.272128734088898 2.8627899047911316 0.9542633015970472 0.9542633015970472 0.0 0.0 0.6622208999947843 0.7493086677799063
75 51.07447411525544 12.334371879030726 23.69798091138792 2.8627899047911316 0.9542633015970472 0.9542633015970472 0.0 0.0 0.6669694181073614 0.7450850926636016
76 56.68793073239923 28.420017436776032 10.611196170588062 2.8915614216611485 0.9638538072203825 0.9638538072203825 0.0 0.0 0.4849872773235938 0.8745212066235144
77 8.543160349321022 12.047771163944462 6.224999363932982 2.8915614216611485 0.9638538072203825 0.9638538072203825 0.0 -0.0 0.724549744492829 0.6892225096116464
78 2.4226311143009425 10.665709379307494 2.6684510361298557 2.9206220970829766 0.9735406990276588 0.9735406990276588 0.0 0.0 0.646327957303847 0.7630597431442944
79 55.86165915042632 12.375841231081115 24.54276645042223 2.9206220970829766 0.9735406990276588 0.9735406990276588 0.0 0.0 0.4210348644808628 0.9070444547493698
80 60.56390493971056 0.8133571573073056 19.358229482303678 2.949974837148372 0.9833249457161272 0.9833249457161272 0.0 0.0 0.5786941501693628 0.8155446527074768
81 11.102442825213748 18.5149996046737 50.4755334785041 2.949974837148372 0.9833249457161272 0.9833249457161272 0.0 0.0 0.683142879342022 0.730284743373632
82 11.893801586281967 57.56211515999359 57.24958643203569 2.9796225771558023 0.993207525718598 0.993207525718598 0.0 0.0 0.3480344086077516 0.937481760049257
83 21.1699985784498 9.616230560251559 57.72209890280747 2.9796225771558023 0.993207525718598 0.993207525718598 0.0 -0.0 0.8280938516825816 0.560589486884571
84 23.318946034879016 31.803342101221904 32.409771232481155 3.009568281903992 1.0031894273013313 1.0031894273013313 0.0 -0.0 0.8521868438699086 0.5232375972109076
85 7.705604859250086 35.76291992723666 21.12482759174561 3.009568281903992 1.0031894273013313 1.0031894273013313 0.0 0.0 0.2683204071818837 0.9633297250109892
86 15.061416271167133 17.175997408377757 60.77256155709071 3.0398149459883226 1.0132716486627802 1.0132716486627802 0.0 0.0 0.5717525694490604 0.8204261083902665
87 15.055601920435633 2.353449535420359 41.023201723836664 3.0398149459883226 1.0132716486627802 1.0132716486627802 0.0 -0.0 0.7407334016199733 0.6717990977401677
88 21.10636743052244 17.27418293554533 59.35825954024949 3.0703655941004575 1.0234551980334834 1.0234551980334834 0.0 0.0 0.6524446383875427 0.7578363898885753
89 13.133102208004967 26.352514435737795 24.398574957948863 3.0703655941004575 1.0234551980334834 1.0234551980334834 0.0 0.0 0.3815125934194192 0.9243636411404275
90 29.765725076131424 55.112641761880006 46.305555359679644 3.1012232813306424 1.0337410937768856 1.0337410937768856 0.0 -0.0 0.7664413141092511 0.642314340511314
91 24.16031351991137 9.201467595783459 39.62992272450711 3.1012232813306424 1.0337410937768856 1.0337410937768856 0.0 -0.0 0.7164030651197486 0.6976866404676452
92 6.44676874952824 41.77630112060203 38.041809448271145 3.1323910934733328 1.0441303644911086 1.0441303644911086 0.0 0.0 0.3159382626609752 0.9487797500931208
93 17.794843256668482 52.463174495723976 31.834088135775527 3.1323910934733328 1.0441303644911086 1.0441303644911086 0.0 -0.0 0.807675111463051 0.5896277760783901
94 40.632095606337316 13.980957207231068 53.43454556733182 3.163872147335711 1.054624049111899 1.054624049111899 0.0 0.0 0.5856043209472178 0.8105970511221638
95 36.23603088007002 9.491081228546541 56.33909435478411 3.163872147335711 1.054624049111899 1.054624049111899 0.0 -0.0 0.8283891439806925 0.5601530381377355
96 33.12145395969425 20.701841356341404 45.49938219167366 3.1956695910493593 1.0652231970164545 1.0652231970164545 0.0 0.0 0.6380161188650698 0.7700230074928626
97 19.679290664231296 60.70532587969662 16.884132988938642 3.1956695910493593 1.0652231970164545 1.0652231970164545 0.0 0.0 0.5652655734899162 0.8249089837231233
98 23.031945810467295 15.594509492736819 33.894557495703076 3.227786604385199 1.0759288681284054 1.0759288681284054 0.0 -0.0 0.9884337224668884 0.15165347437579585
99 51.41252712942276 33.70017212245085 8.084803126658306 3.227786604385199 1.0759288681284054 1.0759288681284054 0.0 0.0 0.644584962479319 0.7645326848117973
100 39.16664563029771 26.029994172586246 49.08316704140946 3.2602263990713327 1.0867421330237719 1.0867421330237719 0.0 -0.0 0.7665764345255346 0.6421530736748979
101 36.61182767317625 35.25103761243401 4.7789546601769795 3.2602263990713327 1.0867421330237719 1.0867421330237719 0.0 -0.0 0.7486465484609144 0.6629693397718779
102 40.14610571788419 51.89885789910986 12.523960365321503 3.292992219114213 1.097664073038072 1.097664073038072 0.0 -0.0 0.764238184631255 0.644934102952793
103 32.54916800531521 32.67523200316228 22.528548185254945 3.292992219114213 1.097664073038072 1.097664073038072 0.0 -0.0 0.7262700822056904 0.6874094614514261
104 57.433604573577064 43.41863135446541 31.70369694279999 3.326087341123184 1.1086957803743898 1.1086957803743898 0.0 0.0 0.6864264585310771 0.7271992278794606
105 15.686511079801319 60.667790616495004 23.08658360617452 3.326087341123184 1.1086957803743898 1.1086957803743898 0.0 -0.0 0.8498704758576332 0.5269916263713497
106 13.854547500001669 1.1161883684279506 52.675623566965584 3.3595150746379985 1.1198383582126668 1.1198383582126668 0.0 -0.0 0.793590538753224 0.6084521811953406
107 38.99387227963849 3.9845771520073905 21.730465835982763 3.3595150746379985 1.1198383582126668 1.1198383582126668 0.0 -0.0 0.8299364941277125 0.5578578812878792
108 58.868425041517334 52.00293374387478 15.995124005975072 3.393278762459895 1.1310929208199618 1.1310929208199618 0.0 -0.0 0.7596155095013813 0.650372414640225
109 30.36051606683045 53.244032634724604 26.707471664987672 3.393278762459895 1.1310929208199618 1.1310929208199618 0.0 -0.0 0.746179639226726 0.6657446552571586
110 29.39681694051811 57.99305889778453 42.71879513525801 3.427381780985769 1.142460593661919 1.142460593661919 0.0 -0.0 0.7434755474029917 0.6687631198068729
111 35.605294752911064 46.33699283743605 17.888540264382875 3.427381780985769 1.142460593661919 1.142460593661919 0.0 -0.0 0.7635489887521677 0.6457499065238353
112 46.47616213403152 53.41481694555598 48.51298034374457 3.461827540545891 1.1539425135153012 1.1539425135153012 0.0 -0.0 0.925703395166632 0.3782502137170186
113 10.721618017224564 24.617198430442787 33.50480567274648 3.461827540545891 1.1539425135153012 1.1539425135153012 0.0 -0.0 0.7476030998596368 0.6641457709571461
114 57.95095042294174 13.945191809226614 34.79303893969754 3.4966194857449526 1.1655398285816514 1.1655398285816514 0.0 -0.0 0.7095009508808979 0.7047044775642494
115 32.8836893993636 20.268772623331323 8.76454323366782 3.4966194857449526 1.1655398285816514 1.1655398285816514 0.0 0.0 0.692332939305712 0.7215782016887105
116 7.302976015057153 43.32725121947476 45.35761717417954 3.5317610958064467 1.1772536986021511 1.1772536986021511 0.0 0.0 0.4838188577050026 0.8751681626573412
117 48.67987081557253 47.499623737382485 51.65983213937085 3.5317610958064467 1.1772536986021511 1.1772536986021511 0.0 0.0 0.4072390243389004 0.9133216175343166
118 46.86982654882897 6.181639596388453 0.755536437097008 3.567255884920662 1.1890852949735555 1.1890852949735555 0.0 -0.0 0.9854258972554679 0.17010526452245991
119 24.39491548106587 38.107566239044054 0.7005250672844024 3.567255884920662 1.1890852949735555 1.1890852949735555 0.0 0.0 0.693566054094668 0.720393037589587
120 54.657928915768196 52.61348097668169 41.30960839245083 3.6031074025960943 1.2010358008653663 1.2010358008653663 0.0 -0.0 0.8546373086497397 0.5192254526349123
121 4.224869121465714 21.623111952564752 2.5592553887297775 3.6031074025960943 1.2010358008653663 1.2010358008653663 0.0 -0.0 0.738138054050796 0.6746496966293722
122 51.43563842376617 47.48385689456335 44.06614146562688 3.6393192340144194 1.213106411338138 1.213106411338138 0.0 0.0 0.30497028615780525 0.9523618663936657
123 53.56570802157853 33.10276699682629 50.891751008740194 3.6393192340144194 1.213106411338138 1.213106411338138 0.0 -0.0 0.8240326158671573 0.5665423620411186
124 31.191753343762507 13.570656549009467 9.778751770771956 3.675895000388894 1.2252983334629575 1.2252983334629575 0.0 -0.0 0.7351480847541838 0.6779065521753388
125 41.01792102717379 58.58644583573908 31.143457124843323 3.675895000388894 1.2252983334629575 1.2252983334629575 0.0 0.0 0.6354145425399089 0.7721711980699606
126 19.442646426585263 21.202712312623866 27.049848896731557 3.7128383593266565 1.2376127864422115 1.2376127864422115 0.0 -0.0 0.9631928649301144 0.2688112812880415
127 57.64581376995264 38.39696380022264 44.837137147019796 3.7128383593266565 1.2376127864422115 1.2376127864422115 0.0 0.0 0.6645731125154195 0.7472232451694524
128 17.11976939879768 48.15393561209209 51.33935681783229 3.7501530051943686 1.2500510017314543 1.2500510017314543 0.0 -0.0 0.837305869343264 0.5467347447925007
129 47.901445909825235 16.715177840819106 54.46802530150097 3.7501530051943686 1.2500510017314543 1.2500510017314543 0.0 0.0 0.6718759690179156 0.7406636768846148
130 23.443051196749245 42.64247503483222 9.55872690298471 3.78784266948777 1.2626142231625903 1.2626142231625903 0.0 -0.0 0.8172568989423515 0.5762735124323614
131 2.849673780711484 12.003744341270497 46.09021684506111 3.78784266948777 1.2626142231625903 1.2626142231625903 0.0 0.0 0.5650588956672867 0.8250505708302167
132 39.93147559228688 12.255840015731208 3.7532664668606213 3.825911121204666 1.2753037070682212 1.2753037070682212 0.0 0.0 0.5632303093681869 0.8262999568008076
133 0.2181135308167929 45.14948285512479 43.43485197180827 3.825911121204666 1.2753037070682212 1.2753037070682212 0.0 0.0 0.7047758212396541 0.7094300823872436
134 55.043113038473514 20.280459005411647 41.47027983071318 3.86436216722197 1.2881207224073146 1.2881207224073146 0.0 -0.0 0.7457546235329385 0.6662207152882933
135 0.25329796918903175 57.18072811673936 55.91089320608468 3.86436216722197 1.2881207224073146 1.2881207224073146 0.0 0.0 0.5807371118896761 0.8140911539097067
136 19.48864405266352 38.92229257703678 1.1741825300425217 3.9031996526762804 1.3010665508920929 1.3010665508920929 0.0 -0.0 0.7765636880913803 0.6300387593933514
137 32.75512332665302 29.772703741822056 20.40574331564516 3.9031996526762804 1.3010665508920929 1.3010665508920929 0.0 -0.0 0.9207785641385271 0.39008567754147583
138 42.0248653464834 35.78714638843334 6.425263566836115 3.9424274613485073 1.3141424871161769 1.3141424871161769 0.0 0.0 0.5933031767685688 0.8049790931672228
139 56.91423902370085 1.5659437591485783 11.634241508006236 3.9424274613485073 1.3141424871161769 1.3141424871161769 0.0 0.0 0.36293328461656904 0.9318151270061183
140 19.77016663976179 33.59755169312759 14.514348918422337 3.982049516052318 1.3273498386840996 1.3273498386840996 0.0 0.0 0.5657838974393875 0.8245535649054563
141 9.433070686310081 43.4670999579681 55.85248900335538 3.982049516052318 1.3273498386840996 1.3273498386840996 0.0 0.0 0.5898626798291705 0.8075035720941112
142 15.340026660691299 34.09565711221798 13.606522124976383 4.022069779026061 1.3406899263420222 1.3406899263420222 0.0 0.0 0.494526605223718 0.8691624915548904
143 45.65445178466176 15.380972752796348 56.95496707871952 4.022069779026061 1.3406899263420222 1.3406899263420222 0.0 0.0 0.6621201748514545 0.7493976741721844
144 15.95947842251087 25.287583510599497 40.54851640197294 4.0624922523294265 1.3541640841098161 1.3541640841098161 0.0 -0.0 0.8358120424685423 0.5490156916378287
145 57.59735949940448 40.42114592683385 19.687297239790034 4.0624922523294265 1.3541640841098161 1.3541640841098161 0.0 -0.0 0.7380766977143534 0.6747168208152773
146 32.02064125163552 54.34354911073509 49.77263131084401 4.103320978243504 1.367773659414502 1.367773659414502 0.0 0.0 0.5600689403365469 0.8284460043179022
147 36.36869279598917 34.01143073811865 44.236934358530945 4.103320978243504 1.367773659414502 1.367773659414502 0.0 -0.0 0.8053653384335279 0.5927787712543771
148 3.0733035944801936 41.24961709356496 53.906573898983744 4.144560039674823 1.3815200132249312 1.3815200132249312 0.0 -0.0 0.9475491048281723 0.31961022189430877
149 5.9385258371298875 42.98653553821965 29.00008327265045 4.144560039674823 1.3815200132249312 1.3815200132249312 0.0 -0.0 0.8855269061838191 0.46458809543994295
150 41.03521714828957 6.683021034593727 4.656725059599856 4.186213560563924 1.3954045201879766 1.3954045201879766 0.0 -0.0 0.8997163709941051 0.43647502994466686
151 25.132621975625007 53.26153403345232 53.691989743747655 4.186213560563924 1.3954045201879766 1.3954045201879766 0.0 0.0 0.6949034215940625 0.7191030765174521
152 44.42155718522425 46.56799832111381 7.988921037535633 4.228285706297579 1.4094285687658579 1.4094285687658579 0.0 0.0 0.6496096252583186 0.7602679361723385
153 22.64730073878839 13.174675977531622 0.03192424121326809 4.228285706297579 1.4094285687658579 1.4094285687658579 0.0 0.0 0.6980264017745981 0.7160720232110785
154 41.85711296674024 12.465727725097107 59.59450792734587 4.27078068412547 1.4235935613751596 1.4235935613751596 0.0 -0.0 0.9126309719920443 0.4087844284716046
155 18.33075461141152 43.401461256724325 6.8544715519896275 4.27078068412547 1.4235935613751596 1.4235935613751596 0.0 0.0 0.34897032679986184 0.9371337743423815
156 12.534090548546576 45.63009307404955 50.757139180462595 4.313702743580759 1.4379009145269286 1.4379009145269286 0.0 0.0 0.6995675014656925 0.7145665195718649
157 25.220262277282004 48.986391116901515 44.21155323997266 4.313702743580759 1.4379009145269286 1.4379009145269286 0.0 0.0 0.63565327495599 0.7719746848425306
158 46.33523481032761 46.05123277440134 34.02924016786183 4.357056176905184 1.4523520589683936 1.4523520589683936 0.0 -0.0 0.7426985308561326 0.6696259345814963
159 3.2850697460324287 52.971284125916284 18.8862272047603 4.357056176905184 1.4523520589683936 1.4523520589683936 0.0 0.0 0.4891044501540252 0.8722252213961303
160 49.20479832147543 53.80571672701012 16.80468969998743 4.40084531947821 1.4669484398260642 1.4669484398260642 0.0 0.0 0.6466947184788655 0.7627489371290798
161 30.990417081392845 17.942947988009095 38.98142356786848 4.40084531947821 1.4669484398260642 1.4669484398260642 0.0 0.0 0.6377575578887067 0.7702371695496348
162 2.9767824081061094 3.5019021022238577 27.55688769673531 4.44507455025052 1.4816915167501792 1.4816915167501792 0.0 0.0 0.6701572236966805 0.7422191694689361
163 36.861003178899175 35.334934411531094 27.877550229232796 4.44507455025052 1.4816915167501792 1.4816915167501792 0.0 -0.0 0.7797338016261434 0.6261111711203069
164 3.5949238247185007 36.207339648390096 32.643233798118246 4.489748292182118 1.4965827640607057 1.4965827640607057 0.0 0.0 0.6966086930688543 0.7174512727293072
165 29.99022953870022 24.217659216548753 46.55528376424981 4.489748292182118 1.4965827640607057 1.4965827640607057 0.0 -0.0 0.8994069955971553 0.43711217813153935
9_B 48.876528806277655 61.05482745160203 57.47911853601168 1.651686092728436 0.5505620309094801 0.5505620309094801 0.0 -0.0 0.7176002965020949 0.6964551776389529
11_B 22.58783344129997 62.3286322506769 4.999263508639391 1.685052365105107 0.5616841217017027 0.5616841217017027 0.0 0.0 0.49983922045674145 0.866118209999765
15_T 21.67378914129437 -1.5865576280036464 24.77206980743093 1.753820656679759 0.5846068855599172 0.5846068855599172 0.0 0.0 0.6340811782098568 0.7732664866913604
18_Ba 53.31996738072388 42.400996696182844 61.353163980959955 1.8072324474169825 0.6024108158056642 0.6024108158056642 0.0 0.0 0.506211649243881 0.8624092799650234
23_B 39.976257644498766 62.644648458823866 45.16097486388167 1.8998912364023834 0.6332970788007916 0.6332970788007916 0.0 -0.0 0.7582829367961579 0.651925599868416
28_B 2.6014013468004142 61.48305905720884 35.31769803485793 1.9973007430879333 0.6657669143626405 0.6657669143626405 0.0 -0.0 0.9828164757017253 0.18458541407500267
51_R 61.38857561158805 30.87337580008225 41.9303257180697 2.5138027350826113 0.837934245027533 0.837934245027533 0.0 -0.0 0.9816329176571261 0.1907794930592849
52_B 25.85671280199789 61.364776249246574 32.9874484041559 2.5390668725868206 0.8463556241956125 0.8463556241956125 0.0 -0.0 0.8312938914163103 0.5558331279205367
64_T 26.185150027831163 -0.09917096686636029 57.53503398092232 2.723169993600934 0.9077233312003051 0.9077233312003051 0.0 0.0 0.5469534661185369 0.8371630103515794
67_T 58.30933997122762 -2.242913512076818 13.714557882411944 2.750538307035215 0.9168461023450712 0.9168461023450712 0.0 -0.0 0.7991221049958454 0.6011687461162707
69_F 45.46034593367289 55.740818717261504 -0.5601022581121811 2.7781816765923057 0.9260605588641003 0.9260605588641003 0.0 0.0 0.69974083585519 0.7143967823532522
80_LT -0.3360950602894377 0.8133571573073056 19.358229482303678 2.949974837148372 0.9833249457161272 0.9833249457161272 0.0 0.0 0.5786941501693628 0.8155446527074768
80_LB -0.3360950602894377 61.71335715730731 19.358229482303678 2.949974837148372 0.9833249457161272 0.9833249457161272 0.0 0.0 0.5786941501693628 0.8155446527074768
80_RB 60.56390493971056 61.71335715730731 19.358229482303678 2.949974837148372 0.9833249457161272 0.9833249457161272 0.0 0.0 0.5786941501693628 0.8155446527074768
86_F 15.061416271167133 17.175997408377757 -0.12743844290928763 3.0398149459883226 1.0132716486627802 1.0132716486627802 0.0 0.0 0.5717525694490604 0.8204261083902665
87_B 15.055601920435633 63.25344953542036 41.023201723836664 3.0398149459883226 1.0132716486627802 1.0132716486627802 0.0 -0.0 0.7407334016199733 0.6717990977401677
97_T 19.679290664231296 -0.19467412030337528 16.884132988938642 3.1956695910493593 1.0652231970164545 1.0652231970164545 0.0 0.0 0.5652655734899162 0.8249089837231233
105_T 15.686511079801319 -0.2322093835049941 23.08658360617452 3.326087341123184 1.1086957803743898 1.1086957803743898 0.0 -0.0 0.8498704758576332 0.5269916263713497
106_B 13.854547500001669 62.01618836842795 52.675623566965584 3.3595150746379985 1.1198383582126668 1.1198383582126668 0.0 -0.0 0.793590538753224 0.6084521811953406