ITEM: TIMESTEP
737
ITEM: NUMBER OF ATOMS
269
ITEM: BOX BOUNDS ff ff ff
0 60.9
60.9 0
60.9 0
ITEM: ATOMS id x y z AsphericalShapeX AsphericalShapeY AsphericalShapeZ OrientationX OrientationY OrientationZ OrientationW
1 45.4913114641867 50.102227511388385 21.60102239670712 5.209386306931793 1.7364621023106028 1.7364621023106028 0.0 -0.0 0.7863642711635499 0.6177630881150306
2 4.183544991826347 17.545357246839856 22.356018393027693 5.261741509722409 1.7539138365740976 1.7539138365740976 0.0 -0.0 0.8896314041555925 0.4566792799549252
3 18.33568287255857 11.457698036023721 55.11019955494222 5.314622891048699 1.7715409636829509 1.7715409636829509 0.0 0.0 0.631512325711268 0.7753658378305981
4 17.789277740813993 47.1763771900625 43.309400569882634 5.368035739093128 1.7893452463644175 1.7893452463644175 0.0 0.0 0.5765741652112841 0.8170448164029381
5 37.490957897479014 35.29965134728986 21.373436746902552 5.421985395184875 1.8073284650616381 1.8073284650616381 0.0 -0.0 0.8873914294477543 0.4610167577677315
6 21.294429959956528 8.476422696128799 28.017633843996396 5.476477254334406 1.8254924181114747 1.8254924181114747 0.0 0.0 0.643710445538684 0.7652691437033046
7 19.01601582852014 55.15025829180095 39.33482863519626 5.531516765773076 1.8438389219243398 1.8438389219243398 0.0 -0.0 0.7603958793842515 0.6494598575858641
8 40.17822520977611 33.41581861680489 14.607399472947021 5.587109433497916 1.8623698111660223 1.8623698111660223 0.0 -0.0 0.7854601334426244 0.6189122545016335
9 50.218824698628346 6.134660067695517 51.69676313354275 5.643260816822182 1.881086938940729 1.881086938940729 0.0 -0.0 0.7176002965020949 0.6964551776389529
10 48.53906734713232 9.154086356124033 14.045602899297847 5.6999765309308 1.8999921769769377 1.8999921769769377 0.0 0.0 0.38534345666417513 0.9227732226317065
11 17.76917504827544 36.66103151917706 60.88170411015332 5.75726224744245 1.9190874158141704 1.9190874158141704 0.0 0.0 0.49983922045674145 0.866118209999765
12 10.984058129503547 16.045031706875793 24.626510330773375 5.8151236949765215 1.9383745649922255 1.9383745649922255 0.0 0.0 0.2746680171135514 0.9615391205639581
13 9.859361504805031 49.72668299079716 14.096367249818849 5.873566659726216 1.957855553242071 1.957855553242071 0.0 -0.0 0.7886508549344257 0.614841303924191
14 7.985187370459175 37.2903670278249 21.620634077343205 5.932596986036397 1.9775323286787938 1.9775323286787938 0.0 -0.0 0.7750680292508737 0.6318777967559605
15 28.483832107467435 46.28646631688926 20.359026741529167 5.992220576989093 1.9974068589964198 1.9974068589964198 0.0 0.0 0.6340811782098568 0.7732664866913604
16 19.042460630543175 31.595259067517652 49.71780393555288 6.052443394993196 2.0174811316643635 2.0174811316643635 0.0 -0.0 0.7629176367612683 0.6464956918020424
17 19.106070629071823 10.680138290861802 33.20980569823596 6.113271462380293 2.037757154126734 2.037757154126734 0.0 0.0 0.6579222258448839 0.7530858813836
18 36.11266473101688 29.85066185255973 18.277040164030144 6.174710862007989 2.0582369540026724 2.0582369540026724 0.0 0.0 0.506211649243881 0.8624092799650234
19 15.33388650771905 8.196685006120992 35.292552224301275 6.2367677378676225 2.0789225792892156 2.0789225792892156 0.0 0.0 0.6434542777811493 0.7654845474633303
20 29.01628959218518 46.951721100781896 35.57678066961391 6.299448295698316 2.0998160985661496 2.0998160985661496 0.0 -0.0 0.7861857262579329 0.6179902942832407
21 46.006610365342866 16.906919956911974 47.122531899097304 6.362758803608128 2.1209196012027176 2.1209196012027176 0.0 0.0 0.6069811502172251 0.7947162281474907
22 15.291298639899914 9.768874299455549 29.84634450517263 6.426705592700668 2.1422351975668796 2.1422351975668796 0.0 -0.0 0.8910647246123514 0.45387625687131333
23 44.928738708560026 8.92733478868125 48.40280928724068 6.49129505770804 2.163765019236065 2.163765019236065 0.0 -0.0 0.7582829367961579 0.651925599868416
24 21.192030878458162 14.560919971935265 44.109857101259344 6.556533657630627 2.1855112192102406 2.1855112192102406 0.0 0.0 0.5255054740936084 0.8507902189715464
25 12.437264845542215 5.371799241599236 54.60701728533335 6.622427916382992 2.207475972127641 2.207475972127641 0.0 0.0 0.6637035342538496 0.7479957343587923
26 3.1487853506333807 54.115901180963874 31.55184896311174 6.6889844234454365 2.2296614744817895 2.2296614744817895 0.0 0.0 0.5361151400853296 0.8441448670526212
27 4.38268513978595 33.27420620531271 31.544810331742173 6.756209834524464 2.2520699448414554 2.2520699448414554 0.0 -0.0 0.7297620279401082 0.6837012378054764
28 12.7194361620897 33.092986467243065 29.603209562757016 6.8241108722171475 2.2747036240723335 2.2747036240723335 0.0 -0.0 0.9828164757017253 0.18458541407500267
29 46.06259930827499 25.480226578772943 27.52463516625333 6.892694326683837 2.2975647755612947 2.2975647755612947 0.0 -0.0 0.8740853421614372 0.4857723897243679
30 21.787375078065768 58.303861200400725 22.673633869751608 6.961967056327097 2.320655685442381 2.320655685442381 0.0 -0.0 0.8433777540022546 0.5373210995802349
31 58.3022506687258 40.34151144643939 31.013658870725347 7.03193598847753 2.3439786628259056 2.3439786628259056 0.0 0.0 0.6952778540174372 0.7187410560924617
32 53.603802906978146 37.10998999676163 33.8679881493958 7.102608120087013 2.3675360400290186 2.3675360400290186 0.0 0.0 0.6353234605105568 0.7722461398575527
33 28.861148550063817 17.763677099995522 22.750715833726122 7.1739905184272805 2.3913301728090417 2.3913301728090417 0.0 0.0 0.6411270229476993 0.7674347792784871
34 19.99511113372941 15.034013508300152 23.305734913441015 7.246090321797554 2.4153634405992483 2.4153634405992483 0.0 -0.0 0.7453722743584635 0.6666484625480594
35 22.527882580272845 38.74277934413546 37.4074168401043 7.318914740238577 2.439638246746245 2.439638246746245 0.0 -0.0 0.7109313362059317 0.7032614273514853
36 38.79441201575864 3.6992350136674066 59.553196694335156 7.392471056252751 2.464157018750981 2.464157018750981 0.0 -0.0 0.739632735620696 0.6730107104632479
37 26.402328687692584 50.219988750746005 26.89349718436403 7.466766625533158 2.4889222085110676 2.4889222085110676 0.0 0.0 0.5163603530767541 0.8563714064414165
38 17.174891454187854 10.69063572765251 16.940798687143026 7.541808877698221 2.513936292566019 2.513936292566019 0.0 0.0 0.5145463711011363 0.8574625542766586
39 11.932477640659084 41.383438905621766 25.98340041389827 7.617605317035861 2.539201772345287 2.539201772345287 0.0 0.0 0.5880831456971182 0.8088004783300898
40 57.14598655381646 14.624040698319865 12.81112574050801 7.694163523253423 2.5647211744178042 2.5647211744178042 0.0 -0.0 0.8608342640850161 0.5088854191045453
41 7.633104415902669 14.851008163403666 31.70960743824988 7.771491152234938 2.590497050744987 2.590497050744987 0.0 0.0 0.5813114541301716 0.8136811373609846
42 14.254768041619643 54.53761527916846 40.187905415389714 7.849595936807882 2.6165319789360137 2.6165319789360137 0.0 0.0 0.6858728758951139 0.7277213739552836
43 60.232502177503 42.062094655697955 40.31042594545242 7.9284856875162335 2.642828562505368 2.642828562505368 0.0 -0.0 0.8971229945165649 0.4417808650333688
44 44.27604763428963 17.54475482119743 22.738793551785005 8.008168293400082 2.669389431133345 2.669389431133345 0.0 -0.0 0.7662793896249596 0.6425075073771507
45 47.811800339809245 58.62602362511088 40.96837467836159 8.088651722787052 2.6962172409289638 2.6962172409289638 0.0 -0.0 0.8021859139948743 0.5970743332184094
46 17.107679350568638 56.39806380654515 13.456325205715215 8.169944024086458 2.7233146746955375 2.7233146746955375 0.0 0.0 0.6689296931602822 0.7433256793683982
47 48.697069791126495 32.93596277774908 17.170243090186947 8.25205332659696 2.75068444219898 2.75068444219898 0.0 -0.0 0.8121614142020023 0.5834328044268712
48 0.12865480463445456 46.99504080914157 13.701171134983493 8.334987841316755 2.7783292804389195 2.7783292804389195 0.0 0.0 0.43861391052531945 0.8986756019241242
49 24.531653933172993 60.4049111785375 8.982928101027214 8.418755861766469 2.80625195392213 2.80625195392213 0.0 -0.0 0.7611420715427216 0.6485851886434459
50 26.02111018816691 25.102897366479358 60.47982403924287 8.50336576481806 2.834455254939318 2.834455254939318 0.0 0.0 0.5689873473401131 0.8223462765568174
51 47.029775156308695 25.607082193273847 41.12516097259885 8.588826011532284 2.8629420038441165 2.8629420038441165 0.0 -0.0 0.9816329176571261 0.1907794930592849
52 35.743508400517484 10.240848733505635 20.376915788268878 8.675145148005143 2.891715049335011 2.891715049335011 0.0 -0.0 0.8312938914163103 0.5558331279205367
53 7.690452599008935 53.50063852316909 3.222512096321145 8.762331806221814 2.9207772687406566 2.9207772687406566 0.0 0.0 0.4937832216878833 0.8695850332081013
54 39.77491718037902 47.98599310287786 41.406374415471866 8.85039470492128 2.9501315683070697 2.9501315683070697 0.0 -0.0 0.7425013715714329 0.6698445440656666
55 22.287171426714238 39.36802835242017 17.28513099487592 8.85039470492128 2.9501315683070697 2.9501315683070697 0.0 -0.0 0.899222239431846 0.4374921303419936
56 41.95222020826906 3.614689299481255 17.0235214788284 8.939342650466562 2.9797808834888784 2.9797808834888784 0.0 0.0 0.591041689671776 0.8066410112744902
57 51.05765622258803 60.66738286663942 54.231923901693285 8.939342650466562 2.9797808834888784 2.9797808834888784 0.0 0.0 0.6906372933410847 0.7232013060320761
58 26.49760714438083 40.53540578924442 31.136909603920092 9.029184537726417 3.0097281792421104 3.0097281792421104 0.0 -0.0 0.9778925487455288 0.20910801779935065
59 33.65897601056858 58.11003745519541 23.775560582847046 9.029184537726417 3.0097281792421104 3.0097281792421104 0.0 -0.0 0.8334397726994561 0.5526103014626843
60 52.15572120149953 22.841192507507508 54.012990584607195 9.119929350964517 3.039976450321445 3.039976450321445 0.0 -0.0 0.8251393648538317 0.5649292243888745
61 4.686810522733201 14.077096097871959 42.06814913460306 9.119929350964517 3.039976450321445 3.039976450321445 0.0 -0.0 0.8342848482439009 0.5513336485202505
62 18.27547500631921 8.023015688519239 39.75726649304865 9.211586164737367 3.070528721579092 3.070528721579092 0.0 0.0 0.6993489688984815 0.7147803996337831
63 32.41056339553862 9.507115138787047 47.920222200637994 9.211586164737367 3.070528721579092 3.070528721579092 0.0 0.0 0.6638694557235675 0.747848477806363
64 43.943492691936925 30.31800860335454 46.49791657477234 9.304164144803183 3.10138804826775 3.10138804826775 0.0 0.0 0.5469534661185369 0.8371630103515794
65 8.811882386645468 26.02204492950444 7.334654566618238 9.304164144803183 3.10138804826775 3.10138804826775 0.0 0.0 0.534266604389083 0.8453160328744268
66 22.930474497588968 56.51146312274553 32.60777609251803 9.3976725490369 3.132557516345663 3.132557516345663 0.0 0.0 0.49259387534365895 0.8702593142126752
67 54.36168944925422 15.44294456582241 7.5506977416885706 9.3976725490369 3.132557516345663 3.132557516345663 0.0 -0.0 0.7991221049958454 0.6011687461162707
68 35.548925300869136 24.8149875063522 25.455738723213432 9.492120728357152 3.164040242785728 3.164040242785728 0.0 -0.0 0.8113628171424923 0.5845428803420658
69 34.618185884681104 12.615271647853865 54.69458741503715 9.492120728357152 3.164040242785728 3.164040242785728 0.0 0.0 0.69974083585519 0.7143967823532522
70 8.930164992229038 1.799717588096403 17.452662664763142 9.587518127660106 3.1958393758867585 3.1958393758867585 0.0 -0.0 0.9226100212719841 0.3857340387475665
71 15.71722569150894 60.79608384184603 24.732271158470418 9.587518127660106 3.1958393758867585 3.1958393758867585 0.0 -0.0 0.8908476943010929 0.4543020862360491
72 10.684076676659775 44.885767061909974 9.763362293777423 9.683874286765663 3.227958095588572 3.227958095588572 0.0 -0.0 0.9180976465577227 0.39635427509384946
73 38.904556715013314 39.38565181158216 29.934540044991184 9.683874286765663 3.227958095588572 3.227958095588572 0.0 0.0 0.6852526383261238 0.7283054453092375
74 42.42684192579502 20.470671626496948 16.382006845272148 9.78119884136976 3.2603996137899234 3.2603996137899234 0.0 0.0 0.6622208999947843 0.7493086677799063
75 52.14117184075417 39.524852368109734 45.67185261865116 9.78119884136976 3.2603996137899234 3.2603996137899234 0.0 0.0 0.6669694181073614 0.7450850926636016
76 3.344749572613974 9.871904981888756 30.09165221741271 9.879501524008864 3.293167174669697 3.293167174669697 0.0 0.0 0.4849872773235938 0.8745212066235144
77 13.7400808297319 50.71452671908547 18.438803834816856 9.879501524008864 3.293167174669697 3.293167174669697 0.0 -0.0 0.724549744492829 0.6892225096116464
78 4.364838519068525 14.509547452636497 15.793662808587591 9.978792165033633 3.3262640550111677 3.3262640550111677 0.0 0.0 0.646327957303847 0.7630597431442944
79 1.2188626843817671 26.57271232969275 26.88655079110407 9.978792165033633 3.3262640550111677 3.3262640550111677 0.0 0.0 0.4210348644808628 0.9070444547493698
80 3.61106852207246 60.579906394648155 23.994155943669984 10.079080693590331 3.359693564530121 3.359693564530121 0.0 0.0 0.5786941501693628 0.8155446527074768
81 57.96547325552176 55.68006404716902 24.012500132719463 10.079080693590331 3.359693564530121 3.359693564530121 0.0 0.0 0.683142879342022 0.730284743373632
82 12.231069284264228 57.654573009352106 6.141963403696734 10.180377138615654 3.393459046205196 3.393459046205196 0.0 0.0 0.3480344086077516 0.937481760049257
83 14.517221318915903 41.43879435719637 4.210328348707505 10.180377138615654 3.393459046205196 3.393459046205196 0.0 -0.0 0.8280938516825816 0.560589486884571
84 34.84922321609146 17.217578961053306 4.213359213344183 10.2826916298386 3.4275638766128855 3.4275638766128855 0.0 -0.0 0.8521868438699086 0.5232375972109076
85 19.065225466116665 47.26672385935276 25.528186459911044 10.2826916298386 3.4275638766128855 3.4275638766128855 0.0 0.0 0.2683204071818837 0.9633297250109892
86 6.9512109714887345 56.60590988371113 55.8866764368925 10.386034398793376 3.4620114662644337 3.4620114662644337 0.0 0.0 0.5717525694490604 0.8204261083902665
87 8.546277037024518 0.013996618707963093 43.81586216492309 10.386034398793376 3.4620114662644337 3.4620114662644337 0.0 -0.0 0.7407334016199733 0.6717990977401677
88 35.38622436402699 45.692080239424726 54.785601840546875 10.490415779843218 3.4968052599477217 3.4968052599477217 0.0 0.0 0.6524446383875427 0.7578363898885753
89 38.87473564717829 16.757212161257016 44.21703854373707 10.490415779843218 3.4968052599477217 3.4968052599477217 0.0 0.0 0.3815125934194192 0.9243636411404275
90 19.653406329325772 17.52808509055515 50.21610961827117 10.595846211213217 3.531948737071042 3.531948737071042 0.0 -0.0 0.7664413141092511 0.642314340511314
91 28.39216884253146 3.2797461941120356 28.016814941415817 10.595846211213217 3.531948737071042 3.531948737071042 0.0 -0.0 0.7164030651197486 0.6976866404676452
92 54.87084311767758 17.452726930895622 36.385016415185525 10.702336236033997 3.5674454120112746 3.5674454120112746 0.0 0.0 0.3159382626609752 0.9487797500931208
93 17.520807088476875 24.94470239987983 32.379854463329124 10.702336236033997 3.5674454120112746 3.5674454120112746 0.0 -0.0 0.807675111463051 0.5896277760783901
94 52.67078873740447 13.925468808625325 45.67877904053856 10.809896503396981 3.6032988344656336 3.6032988344656336 0.0 0.0 0.5856043209472178 0.8105970511221638
95 42.391275120371525 60.74843566648038 53.53448373079981 10.809896503396981 3.6032988344656336 3.6032988344656336 0.0 -0.0 0.8283891439806925 0.5601530381377355
96 46.1113762675342 12.39302513171442 38.360595137839894 10.918537769418752 3.6395125898062703 3.6395125898062703 0.0 0.0 0.6380161188650698 0.7700230074928626
97 26.905871080940365 60.71521284271077 18.06709128826326 10.918537769418752 3.6395125898062703 3.6395125898062703 0.0 0.0 0.5652655734899162 0.8249089837231233
98 18.4412147002947 22.383076287093687 39.286765761929864 11.028270898316054 3.676090299438645 3.676090299438645 0.0 -0.0 0.9884337224668884 0.15165347437579585
99 50.24497605432585 34.79168520806149 7.64109920285162 11.028270898316054 3.676090299438645 3.676090299438645 0.0 0.0 0.644584962479319 0.7645326848117973
100 27.88488134019681 38.08949862331615 54.948825652039766 11.139106863493762 3.713035621164627 3.713035621164627 0.0 -0.0 0.7665764345255346 0.6421530736748979
101 18.81784859164847 19.199354382218722 60.632326935910484 11.139106863493762 3.713035621164627 3.713035621164627 0.0 -0.0 0.7486465484609144 0.6629693397718779
102 42.836682114244084 45.65838777154798 9.241264595084766 11.25105674864021 3.7503522495467827 3.7503522495467827 0.0 -0.0 0.764238184631255 0.644934102952793
103 25.46538725389963 42.91053342098577 0.657541166915325 11.25105674864021 3.7503522495467827 3.7503522495467827 0.0 -0.0 0.7262700822056904 0.6874094614514261
104 51.50163961139516 60.353310576836826 47.26558553662117 11.364131748837615 3.788043916279123 3.788043916279123 0.0 0.0 0.6864264585310771 0.7271992278794606
105 20.646408436329942 43.30757026250801 11.457460956140007 11.364131748837615 3.788043916279123 3.788043916279123 0.0 -0.0 0.8498704758576332 0.5269916263713497
106 11.241102291660209 17.61233236029983 47.8915288573232 11.478343171679644 3.826114390559948 3.826114390559948 0.0 -0.0 0.793590538753224 0.6084521811953406
107 40.042292309705296 45.14178672729204 16.85325700887304 11.478343171679644 3.826114390559948 3.826114390559948 0.0 -0.0 0.8299364941277125 0.5578578812878792
108 50.78049903795784 40.61356303963488 56.01498426023769 11.593702438404502 3.8645674794681546 3.8645674794681546 0.0 -0.0 0.7596155095013813 0.650372414640225
109 59.43721679613322 38.5499390955172 4.055287124489627 11.593702438404502 3.8645674794681546 3.8645674794681546 0.0 -0.0 0.746179639226726 0.6657446552571586
110 41.40026840015098 19.373696910343465 52.432338552942184 11.710221085034554 3.9034070283448394 3.9034070283448394 0.0 -0.0 0.7434755474029917 0.6687631198068729
111 32.07927013112159 40.37658594019857 24.883205644402658 11.710221085034554 3.9034070283448394 3.9034070283448394 0.0 -0.0 0.7635489887521677 0.6457499065238353
112 56.01544655615214 60.25190995190713 17.20206337729476 11.827910763531742 3.9426369211773284 3.9426369211773284 0.0 -0.0 0.925703395166632 0.3782502137170186
113 18.96508002972467 7.9400461314523305 8.567472438826309 11.827910763531742 3.9426369211773284 3.9426369211773284 0.0 -0.0 0.7476030998596368 0.6641457709571461
114 9.09827118885302 0.3726983180932125 36.36223487190861 11.946783242962134 3.9822610809873065 3.9822610809873065 0.0 -0.0 0.7095009508808979 0.7047044775642494
115 27.073523080923266 16.446496693554295 52.92786450961903 11.946783242962134 3.9822610809873065 3.9822610809873065 0.0 0.0 0.692332939305712 0.7215782016887105
116 13.323022769105695 32.7577506490423 54.74394661438268 12.066850410672012 4.022283470224051 4.022283470224051 0.0 0.0 0.4838188577050026 0.8751681626573412
117 44.79091778706212 39.23064881720463 24.33408684191283 12.066850410672012 4.022283470224051 4.022283470224051 0.0 0.0 0.4072390243389004 0.9133216175343166
118 43.941107895594484 16.663063586912482 60.86332744730596 12.188124273478913 4.06270809115964 4.06270809115964 0.0 -0.0 0.9854258972554679 0.17010526452245991
119 33.540625090890366 29.428609283587786 60.85099373303293 12.188124273478913 4.06270809115964 4.06270809115964 0.0 0.0 0.693566054094668 0.720393037589587
120 26.274252824794456 23.63520724397502 30.205597704406244 12.310616958870202 4.103538986289993 4.103538986289993 0.0 -0.0 0.8546373086497397 0.5192254526349123
121 0.11055672789297966 39.121905037676484 53.9207148757466 12.310616958870202 4.103538986289993 4.103538986289993 0.0 -0.0 0.738138054050796 0.6746496966293722
122 58.28772019872474 24.118415084241555 0.0817287508938369 12.43434071621596 4.144780238738637 4.144780238738637 0.0 0.0 0.30497028615780525 0.9523618663936657
123 44.318049144885556 43.7831695933826 52.15599209658386 12.43434071621596 4.144780238738637 4.144780238738637 0.0 -0.0 0.8240326158671573 0.5665423620411186
124 4.879324983903258 40.100995180746374 60.854835455216985 12.559307917995449 4.186435972665143 4.186435972665143 0.0 -0.0 0.7351480847541838 0.6779065521753388
125 0.06541876019974348 60.29502626261733 49.398764986976104 12.559307917995449 4.186435972665143 4.186435972665143 0.0 0.0 0.6354145425399089 0.7721711980699606
126 37.776279100060236 60.851791437736075 43.369695380098705 12.685531061032803 4.228510353677624 4.228510353677624 0.0 -0.0 0.9631928649301144 0.2688112812880415
127 1.9829131681322714 27.639312989595116 37.16267416371567 12.685531061032803 4.228510353677624 4.228510353677624 0.0 0.0 0.6645731125154195 0.7472232451694524
128 8.075504876078256 46.91755557911755 49.06162219880756 12.813022767747379 4.271007589249125 4.271007589249125 0.0 -0.0 0.837305869343264 0.5467347447925007
129 35.047867499395736 57.32110626915989 13.013037004262047 12.813022767747379 4.271007589249125 4.271007589249125 0.0 0.0 0.6718759690179156 0.7406636768846148
130 29.22184221490413 35.41121135373292 15.40532457402074 12.941795787416522 4.313931929138873 4.313931929138873 0.0 -0.0 0.8172568989423515 0.5762735124323614
131 9.81759919047841 36.322011506957274 36.461590318807424 12.941795787416522 4.313931929138873 4.313931929138873 0.0 0.0 0.5650588956672867 0.8250505708302167
132 26.18481869185207 60.248797545110016 52.44375512292633 13.071862997449248 4.357287665816473 4.357287665816473 0.0 0.0 0.5632303093681869 0.8262999568008076
133 15.789499815346685 48.238250005532606 33.48136249873809 13.071862997449248 4.357287665816473 4.357287665816473 0.0 0.0 0.7047758212396541 0.7094300823872436
134 59.41414405885558 29.34749210178037 45.70752060150319 13.203237404674894 4.401079134891622 4.401079134891622 0.0 -0.0 0.7457546235329385 0.6662207152882933
135 41.33502626791885 38.953880953679025 0.44814895414791867 13.203237404674894 4.401079134891622 4.401079134891622 0.0 0.0 0.5807371118896761 0.8140911539097067
136 20.42941052981215 60.52211503145132 0.06740730712971583 13.335932146643707 4.44531071554797 4.44531071554797 0.0 -0.0 0.7765636880913803 0.6300387593933514
137 0.7381196439687974 41.643469426338186 21.908727539543715 13.335932146643707 4.44531071554797 4.44531071554797 0.0 -0.0 0.9207785641385271 0.39008567754147583
138 56.11963910667698 17.28972627598394 24.205245569609225 13.46996049294064 4.489986830980181 4.489986830980181 0.0 0.0 0.5933031767685688 0.8049790931672228
139 6.020267966517504 8.511584598121784 60.82175378090698 13.46996049294064 4.489986830980181 4.489986830980181 0.0 0.0 0.36293328461656904 0.9318151270061183
140 0.05072627132788199 0.042770016128081456 40.287919095845695 13.605335846512144 4.535111948837375 4.535111948837375 0.0 0.0 0.5657838974393875 0.8245535649054563
141 17.866653818578897 44.36416060081405 54.659438678590874 13.605335846512144 4.535111948837375 4.535111948837375 0.0 0.0 0.5898626798291705 0.8075035720941112
142 6.920342150291132 15.176854966335348 7.858723630656079 13.742071745005521 4.580690581668544 4.580690581668544 0.0 0.0 0.494526605223718 0.8691624915548904
143 30.608318866676544 60.86664967513351 60.839886955566506 13.742071745005521 4.580690581668544 4.580690581668544 0.0 0.0 0.6621201748514545 0.7493976741721844
144 9.765308496498202 33.4468323830075 45.419353354935446 13.880181862125436 4.626727287375245 4.626727287375245 0.0 -0.0 0.8358120424685423 0.5490156916378287
145 11.610996637892821 27.43640820770206 15.645874283554674 13.880181862125436 4.626727287375245 4.626727287375245 0.0 -0.0 0.7380766977143534 0.6747168208152773
146 18.4643454744826 60.73154918690004 46.829242269068516 14.019680008998371 4.673226669666217 4.673226669666217 0.0 0.0 0.5600689403365469 0.8284460043179022
147 37.468840561505736 16.553983285810602 32.60948526654222 14.019680008998371 4.673226669666217 4.673226669666217 0.0 -0.0 0.8053653384335279 0.5927787712543771
148 0.5177737238580521 18.599586527257028 52.64696998560337 14.160580135555659 4.720193378518549 4.720193378518549 0.0 -0.0 0.9475491048281723 0.31961022189430877
149 45.217549360917005 0.2127389961147088 25.118107706610232 14.160580135555659 4.720193378518549 4.720193378518549 0.0 -0.0 0.8855269061838191 0.46458809543994295
150 18.438738933982023 29.610860115334912 23.996132438647308 14.302896331926783 4.767632110642263 4.767632110642263 0.0 -0.0 0.8997163709941051 0.43647502994466686
151 33.03702908352205 32.43036169617895 37.616375146138154 14.302896331926783 4.767632110642263 4.767632110642263 0.0 0.0 0.6949034215940625 0.7191030765174521
152 56.72944989180585 0.7742676899383696 60.182433377492494 14.446642829850278 4.8155476099500705 4.8155476099500705 0.0 0.0 0.6496096252583186 0.7602679361723385
153 31.921469751545374 41.32369037150412 6.569582793479252 14.446642829850278 4.8155476099500705 4.8155476099500705 0.0 0.0 0.6980264017745981 0.7160720232110785
154 38.30339281292877 9.610785947420045 8.806347632527105 14.591834004095356 4.863944668031788 4.863944668031788 0.0 -0.0 0.9126309719920443 0.4087844284716046
155 20.781770902061528 25.886745411506514 7.494572733130617 14.591834004095356 4.863944668031788 4.863944668031788 0.0 0.0 0.34897032679986184 0.9371337743423815
156 34.271305491109665 40.285239189060505 46.872860234121156 14.738484373901183 4.91282812463364 4.91282812463364 0.0 0.0 0.6995675014656925 0.7145665195718649
157 25.361865196155957 32.33420671185658 45.925081203028135 14.738484373901183 4.91282812463364 4.91282812463364 0.0 0.0 0.63565327495599 0.7719746848425306
158 52.16427943087725 0.09222120619091553 32.933977811922254 14.886608604426344 4.962202868142008 4.962202868142008 0.0 -0.0 0.7426985308561326 0.6696259345814963
159 21.94425871837063 17.46860689027935 16.007257706612606 14.886608604426344 4.962202868142008 4.962202868142008 0.0 0.0 0.4891044501540252 0.8722252213961303
160 47.468051866402796 57.32231563185649 1.5504270695463203 15.036221508217364 5.012073836072483 5.012073836072483 0.0 0.0 0.6466947184788655 0.7627489371290798
161 27.362539050866822 6.765981701086406 36.746355351691605 15.036221508217364 5.012073836072483 5.012073836072483 0.0 0.0 0.6377575578887067 0.7702371695496348
162 60.876254658246346 60.639797651152584 8.577610785296395 15.187338046689131 5.062446015563015 5.062446015563015 0.0 0.0 0.6701572236966805 0.7422191694689361
163 37.93325148892295 60.16187374878747 33.68247639778225 15.187338046689131 5.062446015563015 5.062446015563015 0.0 -0.0 0.7797338016261434 0.6261111711203069
164 45.17143712633711 39.72490628977091 35.951497786569035 15.339973331622227 5.113324443874076 5.113324443874076 0.0 0.0 0.6966086930688543 0.7174512727293072
165 59.88478484940149 28.866090292304555 15.597986815585298 15.339973331622227 5.113324443874076 5.113324443874076 0.0 -0.0 0.8994069955971553 0.43711217813153935
11_F 17.76917504827544 36.66103151917706 -0.018295889846676516 5.75726224744245 1.9190874158141704 1.9190874158141704 0.0 0.0 0.49983922045674145 0.866118209999765
25_B 12.437264845542215 66.27179924159924 54.60701728533335 6.622427916382992 2.207475972127641 2.207475972127641 0.0 0.0 0.6637035342538496 0.7479957343587923
26_R 64.04878535063338 54.115901180963874 31.55184896311174 6.6889844234454365 2.2296614744817895 2.2296614744817895 0.0 0.0 0.5361151400853296 0.8441448670526212
30_T 21.787375078065768 -2.5961387995992737 22.673633869751608 6.961967056327097 2.320655685442381 2.320655685442381 0.0 -0.0 0.8433777540022546 0.5373210995802349
36_BB 38.79441201575864 64.59923501366741 59.553196694335156 7.392471056252751 2.464157018750981 2.464157018750981 0.0 -0.0 0.739632735620696 0.6730107104632479
36_FT 38.79441201575864 3.6992350136674066 -1.3468033056648423 7.392471056252751 2.464157018750981 2.464157018750981 0.0 -0.0 0.739632735620696 0.6730107104632479
36_FB 38.79441201575864 64.59923501366741 -1.3468033056648423 7.392471056252751 2.464157018750981 2.464157018750981 0.0 -0.0 0.739632735620696 0.6730107104632479
40_L -3.754013446183535 14.624040698319865 12.81112574050801 7.694163523253423 2.5647211744178042 2.5647211744178042 0.0 -0.0 0.8608342640850161 0.5088854191045453
42_T 14.254768041619643 -6.362384720831535 40.187905415389714 7.849595936807882 2.6165319789360137 2.6165319789360137 0.0 0.0 0.6858728758951139 0.7277213739552836
43_L -0.6674978224969976 42.062094655697955 40.31042594545242 7.9284856875162335 2.642828562505368 2.642828562505368 0.0 -0.0 0.8971229945165649 0.4417808650333688
45_T 47.811800339809245 -2.2739763748891164 40.96837467836159 8.088651722787052 2.6962172409289638 2.6962172409289638 0.0 -0.0 0.8021859139948743 0.5970743332184094
46_T 17.107679350568638 -4.501936193454846 13.456325205715215 8.169944024086458 2.7233146746955375 2.7233146746955375 0.0 0.0 0.6689296931602822 0.7433256793683982
48_R 61.028654804634456 46.99504080914157 13.701171134983493 8.334987841316755 2.7783292804389195 2.7783292804389195 0.0 0.0 0.43861391052531945 0.8986756019241242
49_T 24.531653933172993 -0.49508882146249533 8.982928101027214 8.418755861766469 2.80625195392213 2.80625195392213 0.0 -0.0 0.7611420715427216 0.6485851886434459
50_F 26.02111018816691 25.102897366479358 -0.4201759607571276 8.50336576481806 2.834455254939318 2.834455254939318 0.0 0.0 0.5689873473401131 0.8223462765568174
53_T 7.690452599008935 -7.3993614768309115 3.222512096321145 8.762331806221814 2.9207772687406566 2.9207772687406566 0.0 0.0 0.4937832216878833 0.8695850332081013
56_B 41.95222020826906 64.51468929948125 17.0235214788284 8.939342650466562 2.9797808834888784 2.9797808834888784 0.0 0.0 0.591041689671776 0.8066410112744902
57_T 51.05765622258803 -0.2326171333605771 54.231923901693285 8.939342650466562 2.9797808834888784 2.9797808834888784 0.0 0.0 0.6906372933410847 0.7232013060320761
59_T 33.65897601056858 -2.789962544804588 23.775560582847046 9.029184537726417 3.0097281792421104 3.0097281792421104 0.0 -0.0 0.8334397726994561 0.5526103014626843
62_B 18.27547500631921 68.92301568851924 39.75726649304865 9.211586164737367 3.070528721579092 3.070528721579092 0.0 0.0 0.6993489688984815 0.7147803996337831