ITEM: TIMESTEP
800
ITEM: NUMBER OF ATOMS
291
ITEM: BOX BOUNDS ff ff ff
0 60.9
60.9 0
60.9 0
ITEM: ATOMS id x y z AsphericalShapeX AsphericalShapeY AsphericalShapeZ OrientationX OrientationY OrientationZ OrientationW
1 46.20578575782131 50.7952034276841 23.981654325511254 5.654090016060121 1.8846966720200455 1.8846966720200455 0.0 -0.0 0.7863642711635499 0.6177630881150306
2 3.092269391840245 16.21468356226371 22.604178475183005 5.7109145654304205 1.9036381884767635 1.9036381884767635 0.0 -0.0 0.8896314041555925 0.4566792799549252
3 16.53733873585535 10.272473511149968 54.65067827029989 5.768310211016265 1.9227700703388158 1.9227700703388158 0.0 0.0 0.631512325711268 0.7753658378305981
4 17.16994874511928 46.31003760431038 42.922874237429646 5.826282692430326 1.9420942308101643 1.9420942308101643 0.0 0.0 0.5765741652112841 0.8170448164029381
5 33.64188456096073 33.67878365450233 20.678433522968607 5.88483780696895 1.9616126023230012 1.9616126023230012 0.0 -0.0 0.8873914294477543 0.4610167577677315
6 19.553833579746073 1.6324894839722002 27.62391020929424 5.943981410192225 1.9813271367307477 1.9813271367307477 0.0 0.0 0.643710445538684 0.7652691437033046
7 19.595417194707878 50.16525893508575 38.52961950772467 6.003719416509802 2.001239805503244 2.001239805503244 0.0 -0.0 0.7603958793842515 0.6494598575858641
8 40.10037978954834 28.967850557620267 13.832980164449872 6.064057799772124 2.021352599924101 2.021352599924101 0.0 -0.0 0.7854601334426244 0.6189122545016335
9 48.53142546865985 5.928648864345378 51.24287640808253 6.125002593867979 2.041667531289328 2.041667531289328 0.0 -0.0 0.7176002965020949 0.6964551776389529
10 49.34646958258065 5.638222833914693 14.747262984508753 6.186559893327336 2.062186631109116 2.062186631109116 0.0 0.0 0.38534345666417513 0.9227732226317065
11 15.456060643137189 32.54012769035001 60.61369807095932 6.24873585393144 2.082911951310498 2.082911951310498 0.0 0.0 0.49983922045674145 0.866118209999765
12 9.107941527014837 10.526877761826633 25.53497073090271 6.311536693328171 2.1038455644427847 2.1038455644427847 0.0 0.0 0.2746680171135514 0.9615391205639581
13 5.519905380110421 51.29503153195566 10.984838202531316 6.37496869165405 2.1249895638846974 2.1249895638846974 0.0 -0.0 0.7886508549344257 0.614841303924191
14 11.242249078800084 37.77678944783331 20.739424693568466 6.439038192161437 2.146346064053824 2.146346064053824 0.0 -0.0 0.7750680292508737 0.6318777967559605
15 28.67904232085425 46.49764031322434 19.716455825416492 6.503751601854011 2.1679172006180685 2.1679172006180685 0.0 0.0 0.6340811782098568 0.7732664866913604
16 18.3442911371039 26.810388704847774 49.086870569244056 6.569115392126766 2.189705130708896 2.189705130708896 0.0 -0.0 0.7629176367612683 0.6464956918020424
17 19.136271524369654 8.092470575738819 33.21900948773205 6.635136099412761 2.211712033137566 2.211712033137566 0.0 0.0 0.6579222258448839 0.7530858813836
18 36.5903942777344 26.90649649493428 17.273096414105765 6.701820325837924 2.2339401086126696 2.2339401086126696 0.0 0.0 0.506211649243881 0.8624092799650234
19 13.62732982709828 3.495006423709086 33.65308349757779 6.7691747398806985 2.2563915799602596 2.2563915799602596 0.0 0.0 0.6434542777811493 0.7654845474633303
20 27.499584121395422 44.252662103080965 35.68727800871881 6.837206077038402 2.2790686923461876 2.2790686923461876 0.0 -0.0 0.7861857262579329 0.6179902942832407
21 44.98872055805236 17.26338937214644 47.8000436896461 6.905921140501488 2.301973713500523 2.301973713500523 0.0 0.0 0.6069811502172251 0.7947162281474907
22 13.320550410578813 4.990573678160797 28.207022725125984 6.975326801833651 2.32510893394455 2.32510893394455 0.0 -0.0 0.8910647246123514 0.45387625687131333
23 45.97278055228256 3.5798607565548908 47.58085917758087 7.04543000165871 2.3484766672196216 2.3484766672196216 0.0 -0.0 0.7582829367961579 0.651925599868416
24 22.443839816484964 14.741405425749551 43.49844603095018 7.116237750355176 2.3720792501184422 2.3720792501184422 0.0 0.0 0.5255054740936084 0.8507902189715464
25 11.773843594900645 5.074633289377555 54.687486746318434 7.187757128757154 2.395919042919038 2.395919042919038 0.0 0.0 0.6637035342538496 0.7479957343587923
26 2.5028598934010415 53.10948479518325 30.376476077751036 7.259995288861523 2.4199984296204664 2.4199984296204664 0.0 0.0 0.5361151400853296 0.8441448670526212
27 3.5899965047523668 38.5882168159339 28.35330192038524 7.3329594545448575 2.4443198181815773 2.4443198181815773 0.0 -0.0 0.7297620279401082 0.6837012378054764
28 10.417934161845931 27.30467334543107 28.115915599762676 7.406656922284478 2.4688856407614344 2.4688856407614344 0.0 -0.0 0.9828164757017253 0.18458541407500267
29 47.23618015305431 24.10330726801134 27.743947497583715 7.481095061888568 2.4936983539628716 2.4936983539628716 0.0 -0.0 0.8740853421614372 0.4857723897243679
30 20.05887705751599 58.34242198449003 23.061593974161873 7.556281317233082 2.518760439077709 2.518760439077709 0.0 -0.0 0.8433777540022546 0.5373210995802349
31 55.33593829230997 45.600350104960135 33.016642165005095 7.6322232070060965 2.544074402335437 2.544074402335437 0.0 0.0 0.6952778540174372 0.7187410560924617
32 52.6434263780978 29.61368129473099 34.040653320866895 7.708928325460307 2.56964277515345 2.56964277515345 0.0 0.0 0.6353234605105568 0.7722461398575527
33 27.04717442423466 16.751728198448667 20.881222822512203 7.786404343171085 2.5954681143903007 2.5954681143903007 0.0 0.0 0.6411270229476993 0.7674347792784871
34 19.211702447613384 16.005175792170217 21.822836322276828 7.864659007804659 2.621553002601626 2.621553002601626 0.0 -0.0 0.7453722743584635 0.6666484625480594
35 22.58329471718125 37.244286420760034 36.095600793043104 7.943700144893077 2.6479000482977546 2.6479000482977546 0.0 -0.0 0.7109313362059317 0.7032614273514853
36 35.71328676403542 2.666835963951354 58.026905702031044 8.023535658615788 2.6745118862053356 2.6745118862053356 0.0 -0.0 0.739632735620696 0.6730107104632479
37 24.474296874102816 47.690998059423244 26.87162580050177 8.10417353259087 2.701391177530308 2.701391177530308 0.0 0.0 0.5163603530767541 0.8563714064414165
38 14.533240572828205 7.795843887302575 18.679575955037595 8.185621830672455 2.728540610224093 2.728540610224093 0.0 0.0 0.5145463711011363 0.8574625542766586
39 9.413198992236643 40.90192675883955 26.925978584791437 8.267888697758435 2.7559628992528116 2.7559628992528116 0.0 0.0 0.5880831456971182 0.8088004783300898
40 53.97639509665423 8.027945432028023 12.18726333041256 8.350982360604299 2.7836607868681154 2.7836607868681154 0.0 -0.0 0.8608342640850161 0.5088854191045453
41 7.183078955490717 18.855789169710267 31.551294967622297 8.434911128645238 2.8116370428817627 2.8116370428817627 0.0 0.0 0.5813114541301716 0.8136811373609846
42 12.806945880295762 51.8752066373712 38.205353757619065 8.519683394828096 2.8398944649427467 2.8398944649427467 0.0 0.0 0.6858728758951139 0.7277213739552836
43 59.84359153107178 41.92519764299279 40.59650983474688 8.605307636450556 2.8684358788167996 2.8684358788167996 0.0 -0.0 0.8971229945165649 0.4417808650333688
44 43.51858064063881 19.36848990474772 22.61179016567107 8.691792416007452 2.897264138669116 2.897264138669116 0.0 -0.0 0.7662793896249596 0.6425075073771507
45 50.44946434873631 54.30114453893202 39.068026976488355 8.77914638204932 2.926382127349729 2.926382127349729 0.0 -0.0 0.8021859139948743 0.5970743332184094
46 19.17226704347897 55.70180846291342 13.569425526453859 8.8673782700451 2.955792756681742 2.955792756681742 0.0 0.0 0.6689296931602822 0.7433256793683982
47 53.63517036856183 39.55626154243792 14.664000504124598 8.95649690325773 2.985498967752551 2.985498967752551 0.0 -0.0 0.8121614142020023 0.5834328044268712
48 0.8566005071455692 46.49914469748644 14.22377311208183 9.046511193624283 3.0155037312080957 3.0155037312080957 0.0 0.0 0.43861391052531945 0.8986756019241242
49 26.652564995783823 58.95491535273388 7.549316679075272 9.137430142649025 3.0458100475496206 3.0458100475496206 0.0 -0.0 0.7611420715427216 0.6485851886434459
50 25.26120442513554 19.784782666868008 60.06267503340726 9.229262842302486 3.0764209474341357 3.0764209474341357 0.0 0.0 0.5689873473401131 0.8223462765568174
51 44.66342073325806 22.163461514267784 39.44055911527115 9.322018475931332 3.1073394919771604 3.1073394919771604 0.0 -0.0 0.9816329176571261 0.1907794930592849
52 37.116207902713164 12.309482391882447 18.711400249198444 9.415706319176326 3.1385687730587386 3.1385687730587386 0.0 -0.0 0.8312938914163103 0.5558331279205367
53 4.671381538219309 52.122613609597394 60.411745686945096 9.510335740899334 3.170111913633154 3.170111913633154 0.0 0.0 0.4937832216878833 0.8695850332081013
54 41.50051550537914 52.80611498111311 41.3899767030667 9.605916204121925 3.2019720680405994 3.2019720680405994 0.0 -0.0 0.7425013715714329 0.6698445440656666
55 21.764681014578283 38.52321705934575 16.541916868572905 9.605916204121925 3.2019720680405994 3.2019720680405994 0.0 -0.0 0.899222239431846 0.4374921303419936
56 43.33066185636748 3.7846363695463845 15.686559782056328 9.702457266969805 3.234152422323302 3.234152422323302 0.0 0.0 0.591041689671776 0.8066410112744902
57 50.24758232997703 60.885434989545075 53.23985021761255 9.702457266969805 3.234152422323302 3.234152422323302 0.0 0.0 0.6906372933410847 0.7232013060320761
58 23.63604252970444 34.28984579883327 30.045861432491716 9.799968583629939 3.2666561945432657 3.2666561945432657 0.0 -0.0 0.9778925487455288 0.20910801779935065
59 29.80270105637176 0.595792508773964 22.80867044464721 9.799968583629939 3.2666561945432657 3.2666561945432657 0.0 -0.0 0.8334397726994561 0.5526103014626843
60 49.976918990442464 18.914547045941656 53.14384655601825 9.898459905315159 3.2994866351049827 3.2994866351049827 0.0 -0.0 0.8251393648538317 0.5649292243888745
61 2.4161166146749884 8.916676208165867 42.32361250723913 9.898459905315159 3.2994866351049827 3.2994866351049827 0.0 -0.0 0.8342848482439009 0.5513336485202505
62 17.14096057757121 8.7480450321402 38.53647025505088 9.9979410812393 3.3326470270797457 3.3326470270797457 0.0 0.0 0.6993489688984815 0.7147803996337831
63 31.97332179187077 8.630382694919037 47.29462859289037 9.9979410812393 3.3326470270797457 3.3326470270797457 0.0 0.0 0.6638694557235675 0.747848477806363
64 45.12850051060132 28.16914059624258 45.12212426617892 10.09842205960341 3.3661406865345107 3.3661406865345107 0.0 0.0 0.5469534661185369 0.8371630103515794
65 4.969607922805762 25.116131937270513 4.5287141680886 10.09842205960341 3.3661406865345107 3.3661406865345107 0.0 0.0 0.534266604389083 0.8453160328744268
66 21.930317262011595 54.93938389309675 32.62664578984078 10.199912888588866 3.3999709628629757 3.3999709628629757 0.0 0.0 0.49259387534365895 0.8702593142126752
67 52.16342889619135 14.866386846178216 6.338577368082806 10.199912888588866 3.3999709628629757 3.3999709628629757 0.0 -0.0 0.7991221049958454 0.6011687461162707
68 34.71140805688199 18.70456928576697 23.840275043816764 10.30242371736326 3.434141239121097 3.434141239121097 0.0 -0.0 0.8113628171424923 0.5845428803420658
69 32.59863884192265 7.889807315084742 53.107760222402604 10.30242371736326 3.434141239121097 3.434141239121097 0.0 0.0 0.69974083585519 0.7143967823532522
70 6.807919875179617 59.29937574171615 15.084088252851664 10.40596479709446 3.4686549323649047 3.4686549323649047 0.0 -0.0 0.9226100212719841 0.3857340387475665
71 13.28446449523974 60.65093747406914 23.081194502745007 10.40596479709446 3.4686549323649047 3.4686549323649047 0.0 -0.0 0.8908476943010929 0.4543020862360491
72 10.893584216370215 43.22786868510074 10.657986348481844 10.510546481977403 3.503515493992476 3.503515493992476 0.0 -0.0 0.9180976465577227 0.39635427509384946
73 37.532851706759224 31.511617212617363 29.088526299033038 10.510546481977403 3.503515493992476 3.503515493992476 0.0 0.0 0.6852526383261238 0.7283054453092375
74 46.14991545757754 23.476604654746303 16.707879264583468 10.61617923026718 3.5387264100890636 3.5387264100890636 0.0 0.0 0.6622208999947843 0.7493086677799063
75 49.385244419573006 39.264988856768944 43.71652234178473 10.61617923026718 3.5387264100890636 3.5387264100890636 0.0 0.0 0.6669694181073614 0.7450850926636016
76 1.3877161109207923 12.923426168708854 28.761316679497398 10.722873605326692 3.5742912017756487 3.5742912017756487 0.0 0.0 0.4849872773235938 0.8745212066235144
77 13.528208941820415 51.772006813242335 17.078018037636618 10.722873605326692 3.5742912017756487 3.5742912017756487 0.0 -0.0 0.724549744492829 0.6892225096116464
78 4.664379990679923 9.598187209809476 15.768112857964582 10.83064027668289 3.6102134255609015 3.6102134255609015 0.0 0.0 0.646327957303847 0.7630597431442944
79 57.911032115297544 28.150872401871997 28.333574840381498 10.83064027668289 3.6102134255609015 3.6102134255609015 0.0 0.0 0.4210348644808628 0.9070444547493698
80 2.710358008619926 59.25197962509579 24.969265846676812 10.939490021091911 3.646496673697333 3.646496673697333 0.0 0.0 0.5786941501693628 0.8155446527074768
81 57.98648161461451 49.390138118988766 25.509393678429188 10.939490021091911 3.646496673697333 3.646496673697333 0.0 0.0 0.683142879342022 0.730284743373632
82 7.532916244437582 54.34532300626483 5.524076509526459 11.049433723619394 3.6831445745397855 3.6831445745397855 0.0 0.0 0.3480344086077516 0.937481760049257
83 10.791185414808618 35.442512227995984 4.03719142329102 11.049433723619394 3.6831445745397855 3.6831445745397855 0.0 -0.0 0.8280938516825816 0.560589486884571
84 38.14495169210728 14.953013495558096 4.683393443960124 11.160482378727295 3.7201607929091076 3.7201607929091076 0.0 -0.0 0.8521868438699086 0.5232375972109076
85 15.59320067887541 46.88563352441919 23.85555670532974 11.160482378727295 3.7201607929091076 3.7201607929091076 0.0 0.0 0.2683204071818837 0.9633297250109892
86 4.927026742112692 56.35424923124531 53.81354261253849 11.272647091373296 3.757549030457731 3.757549030457731 0.0 0.0 0.5717525694490604 0.8204261083902665
87 4.848046170800808 60.76722533934895 42.294793300692376 11.272647091373296 3.757549030457731 3.757549030457731 0.0 -0.0 0.7407334016199733 0.6717990977401677
88 33.50447433163714 42.90397053221839 53.5107418426894 11.385939078122483 3.7953130260408194 3.7953130260408194 0.0 0.0 0.6524446383875427 0.7578363898885753
89 37.94888287371151 14.510031882572445 43.59194100708559 11.385939078122483 3.7953130260408194 3.7953130260408194 0.0 0.0 0.3815125934194192 0.9243636411404275
90 19.237914897442327 11.990787952025489 49.01676193694285 11.500369668268014 3.8334565560893075 3.8334565560893075 0.0 -0.0 0.7664413141092511 0.642314340511314
91 26.04887565917737 2.17969242218316 27.39348516507544 11.500369668268014 3.8334565560893075 3.8334565560893075 0.0 -0.0 0.7164030651197486 0.6976866404676452
92 53.7574012753229 12.830033175072492 35.349433773256614 11.615950304963768 3.8719834349878464 3.8719834349878464 0.0 0.0 0.3159382626609752 0.9487797500931208
93 15.659019966017548 18.29094307011048 30.591792015932885 11.615950304963768 3.8719834349878464 3.8719834349878464 0.0 -0.0 0.807675111463051 0.5896277760783901
94 50.79989559151054 7.565759487447967 43.525359252366925 11.732692546369925 3.9108975154565964 3.9108975154565964 0.0 0.0 0.5856043209472178 0.8105970511221638
95 40.259920379108635 60.71613451339985 52.52724848154602 11.732692546369925 3.9108975154565964 3.9108975154565964 0.0 -0.0 0.8283891439806925 0.5601530381377355
96 44.0778731392412 7.497933638847324 37.09856803588341 11.850608066808196 3.9502026889360757 3.9502026889360757 0.0 0.0 0.6380161188650698 0.7700230074928626
97 24.937344482036792 55.76230829869611 17.036759652574542 11.850608066808196 3.9502026889360757 3.9502026889360757 0.0 0.0 0.5652655734899162 0.8249089837231233
98 14.46743321091818 21.81883139298785 37.48691372720245 11.969708657928367 3.9899028859760826 3.9899028859760826 0.0 -0.0 0.9884337224668884 0.15165347437579585
99 51.70176383814533 36.2100109837412 7.8202460579701585 11.969708657928367 3.9899028859760826 3.9899028859760826 0.0 0.0 0.644584962479319 0.7645326848117973
100 25.88718629635306 31.272748805608593 53.93566081004661 12.090006229889603 4.030002076629907 4.030002076629907 0.0 -0.0 0.7665764345255346 0.6421530736748979
101 17.374528084577374 14.50621070130273 60.85624792862481 12.090006229889603 4.030002076629907 4.030002076629907 0.0 -0.0 0.7486465484609144 0.6629693397718779
102 42.534888104138325 37.851625097271466 8.37179980338929 12.21151281254855 4.070504270849563 4.070504270849563 0.0 -0.0 0.764238184631255 0.644934102952793
103 24.026115461062425 40.200772444265255 60.745130311011984 12.21151281254855 4.070504270849563 4.070504270849563 0.0 -0.0 0.7262700822056904 0.6874094614514261
104 52.18992022208503 54.77585861831136 47.87796275377927 12.334240556665218 4.111413518888324 4.111413518888324 0.0 0.0 0.6864264585310771 0.7271992278794606
105 19.09884677878879 40.61697719065845 9.694944318430085 12.334240556665218 4.111413518888324 4.111413518888324 0.0 -0.0 0.8498704758576332 0.5269916263713497
106 12.424633624605317 14.769055043683265 45.47497657046676 12.458201735115672 4.152733911705309 4.152733911705309 0.0 -0.0 0.793590538753224 0.6084521811953406
107 40.34444491573515 43.525718239924196 15.688462150344996 12.458201735115672 4.152733911705309 4.152733911705309 0.0 -0.0 0.8299364941277125 0.5578578812878792
108 51.055210342354464 37.17174515252001 55.67738764170639 12.583408744121924 4.194469581373988 4.194469581373988 0.0 -0.0 0.7596155095013813 0.650372414640225
109 59.995169192118105 33.536929160907754 4.3317429845227835 12.583408744121924 4.194469581373988 4.194469581373988 0.0 -0.0 0.746179639226726 0.6657446552571586
110 40.466997451114146 15.775114037264746 51.932277261101845 12.709874104488687 4.236624701496246 4.236624701496246 0.0 -0.0 0.7434755474029917 0.6687631198068729
111 28.25201554290869 34.97656548863397 24.92141724305632 12.709874104488687 4.236624701496246 4.236624701496246 0.0 -0.0 0.7635489887521677 0.6457499065238353
112 56.063349398010494 58.68401799110556 17.070695511852332 12.83761046285762 4.279203487619274 4.279203487619274 0.0 -0.0 0.925703395166632 0.3782502137170186
113 19.01436039710656 0.7574502263225386 4.8226830874151645 12.83761046285762 4.279203487619274 4.279203487619274 0.0 -0.0 0.7476030998596368 0.6641457709571461
114 9.094526388810865 0.17950574130862407 33.61982126615202 12.966630592971134 4.322210197656955 4.322210197656955 0.0 -0.0 0.7095009508808979 0.7047044775642494
115 25.067655057972424 6.0428417735338416 52.509018887247485 12.966630592971134 4.322210197656955 4.322210197656955 0.0 0.0 0.692332939305712 0.7215782016887105
116 12.40339383628785 27.588382735040735 54.178605217982636 13.096947396948863 4.365649132316353 4.365649132316353 0.0 0.0 0.4838188577050026 0.8751681626573412
117 41.890430132887914 37.38561525658609 24.22098630434004 13.096947396948863 4.365649132316353 4.365649132316353 0.0 0.0 0.4072390243389004 0.9133216175343166
118 36.72878228224343 13.332365752990345 60.51920632184749 13.22857390658077 4.4095246355269255 4.4095246355269255 0.0 -0.0 0.9854258972554679 0.17010526452245991
119 31.848453432493432 27.175009395998494 59.1488461162695 13.22857390658077 4.4095246355269255 4.4095246355269255 0.0 0.0 0.693566054094668 0.720393037589587
120 25.4826509716812 21.593349057329462 27.43152296630353 13.36152328462745 4.453841094875724 4.453841094875724 0.0 -0.0 0.8546373086497397 0.5192254526349123
121 59.86337720787698 37.42691647702492 54.99555036337806 13.36152328462745 4.453841094875724 4.453841094875724 0.0 -0.0 0.738138054050796 0.6746496966293722
122 56.80048313856415 16.42659465814521 60.667878095528415 13.495808826136862 4.498602942045567 4.498602942045567 0.0 0.0 0.30497028615780525 0.9523618663936657
123 43.420648325259194 40.514852029535824 51.46385192561487 13.495808826136862 4.498602942045567 4.498602942045567 0.0 -0.0 0.8240326158671573 0.5665423620411186
124 4.186978963970224 29.941150522976884 60.88509075154465 13.63144395977555 4.54381465325851 4.54381465325851 0.0 -0.0 0.7351480847541838 0.6779065521753388
125 59.11923462145155 60.62456811065261 48.672885447266275 13.63144395977555 4.54381465325851 4.54381465325851 0.0 0.0 0.6354145425399089 0.7721711980699606
126 33.864524070836715 59.0299309050372 43.17046787993286 13.768442249169752 4.589480749723255 4.589480749723255 0.0 -0.0 0.9631928649301144 0.2688112812880415
127 60.834466599586676 24.632612475939126 36.6975228630556 13.768442249169752 4.589480749723255 4.589480749723255 0.0 0.0 0.6645731125154195 0.7472232451694524
128 4.84260155240284 43.16469266282095 46.85447866790544 13.906817394262397 4.6356057980874645 4.6356057980874645 0.0 -0.0 0.837305869343264 0.5467347447925007
129 33.33822586582042 52.54340258943604 11.311489132529436 13.906817394262397 4.6356057980874645 4.6356057980874645 0.0 0.0 0.6718759690179156 0.7406636768846148
130 27.45855057385731 30.768502205318004 15.689771989884226 14.04658323268376 4.682194410894656 4.682194410894656 0.0 -0.0 0.8172568989423515 0.5762735124323614
131 7.067790508958215 33.8309793781923 34.85092735691158 14.04658323268376 4.682194410894656 4.682194410894656 0.0 0.0 0.5650588956672867 0.8250505708302167
132 22.993847946714947 54.14317128545371 51.711644416255226 14.187753741133914 4.729251247044714 4.729251247044714 0.0 0.0 0.5632303093681869 0.8262999568008076
133 15.29172236515933 42.522890610507204 31.705503854229462 14.187753741133914 4.729251247044714 4.729251247044714 0.0 0.0 0.7047758212396541 0.7094300823872436
134 55.371839967037786 21.62770966576416 44.34196675501528 14.330343036781281 4.776781012260417 4.776781012260417 0.0 -0.0 0.7457546235329385 0.6662207152882933
135 40.07149867411775 34.99204855202061 60.691376868425664 14.330343036781281 4.776781012260417 4.776781012260417 0.0 0.0 0.5807371118896761 0.8140911539097067
136 18.744172723725914 54.37146884259624 60.76132456681978 14.474365378674234 4.824788459558183 4.824788459558183 0.0 -0.0 0.7765636880913803 0.6300387593933514
137 0.030608587172763477 36.29881052084179 21.111708635145586 14.474365378674234 4.824788459558183 4.824788459558183 0.0 -0.0 0.9207785641385271 0.39008567754147583
138 54.83910061379427 11.772201165828378 23.15148437726625 14.619835169167253 4.873278389722385 4.873278389722385 0.0 0.0 0.5933031767685688 0.8049790931672228
139 4.608000988331482 4.7063553113441765 60.88533628188492 14.619835169167253 4.873278389722385 4.873278389722385 0.0 0.0 0.36293328461656904 0.9318151270061183
140 59.55025860745803 60.60023241922118 37.16110535920301 14.766766955360744 4.922255651786908 4.922255651786908 0.0 0.0 0.5657838974393875 0.8245535649054563
141 16.602341447244573 39.92476581815593 52.26370196907062 14.766766955360744 4.922255651786908 4.922255651786908 0.0 0.0 0.5898626798291705 0.8075035720941112
142 5.601987310710977 5.0971857146018085 7.515100070954647 14.915175430554767 4.971725143518274 4.971725143518274 0.0 0.0 0.494526605223718 0.8691624915548904
143 29.884673369398357 60.8546962365971 0.19532317062234444 14.915175430554767 4.971725143518274 4.971725143518274 0.0 0.0 0.6621201748514545 0.7493976741721844
144 9.327121961257367 31.250350644731153 44.13636625725524 15.065075435721484 5.02169181190728 5.02169181190728 0.0 -0.0 0.8358120424685423 0.5490156916378287
145 12.037138632188734 21.401026375675258 10.85130077108853 15.065075435721484 5.02169181190728 5.02169181190728 0.0 -0.0 0.7380766977143534 0.6747168208152773
146 15.170001845435426 0.046211421366074035 44.136533765027245 15.216481960986005 5.072160653662114 5.072160653662114 0.0 0.0 0.5600689403365469 0.8284460043179022
147 38.15035181426354 8.724983266177091 30.660347533667455 15.216481960986005 5.072160653662114 5.072160653662114 0.0 -0.0 0.8053653384335279 0.5927787712543771
148 60.77336092823787 12.167811392719393 51.449681488664446 15.369410147127484 5.123136715709139 5.123136715709139 0.0 -0.0 0.9475491048281723 0.31961022189430877
149 39.22523260173189 60.27531732040994 23.68172556115836 15.369410147127484 5.123136715709139 5.123136715709139 0.0 -0.0 0.8855269061838191 0.46458809543994295
150 12.495427903318596 22.97531462507264 21.065480427172503 15.523875287091267 5.174625095697091 5.174625095697091 0.0 -0.0 0.8997163709941051 0.43647502994466686
151 31.869752057557367 23.384313463845857 35.649845033346125 15.523875287091267 5.174625095697091 5.174625095697091 0.0 0.0 0.6949034215940625 0.7191030765174521
152 53.740869090750394 57.80639974240899 60.79308863964137 15.679892827520431 5.226630942506788 5.226630942506788 0.0 0.0 0.6496096252583186 0.7602679361723385
153 31.417952055895267 31.67368885585017 5.049774874844901 15.679892827520431 5.226630942506788 5.226630942506788 0.0 0.0 0.6980264017745981 0.7160720232110785
154 37.88413921303525 2.891264435580967 10.001416979117364 15.837478370298617 5.279159456766227 5.279159456766227 0.0 -0.0 0.9126309719920443 0.4087844284716046
155 20.123596729121505 20.305455682453722 5.809392845968885 15.837478370298617 5.279159456766227 5.279159456766227 0.0 0.0 0.34897032679986184 0.9371337743423815
156 34.74654288484634 38.33648939960176 44.6129062065171 15.996647674112289 5.332215891370675 5.332215891370675 0.0 0.0 0.6995675014656925 0.7145665195718649
157 24.867521309020326 29.66039492947364 44.4432361036361 15.996647674112289 5.332215891370675 5.332215891370675 0.0 0.0 0.63565327495599 0.7719746848425306
158 50.43138400892276 60.333130129302475 29.839487254840293 16.15741665602373 5.385805552007771 5.385805552007771 0.0 -0.0 0.7426985308561326 0.6696259345814963
159 20.88934520266986 10.168718183546341 13.58918887345896 16.15741665602373 5.385805552007771 5.385805552007771 0.0 0.0 0.4891044501540252 0.8722252213961303
160 43.25954371560284 55.308778298008946 0.5176102989636395 16.319801393065184 5.4399337976884325 5.4399337976884325 0.0 0.0 0.6466947184788655 0.7627489371290798
161 26.41632704015728 5.959324824512214 36.746093510428324 16.319801393065184 5.4399337976884325 5.4399337976884325 0.0 0.0 0.6377575578887067 0.7702371695496348
162 54.5873697073995 59.42004925010417 7.3333760874561245 16.483818123845538 5.494606041281804 5.494606041281804 0.0 0.0 0.6701572236966805 0.7422191694689361
163 36.07137362724176 53.66697126837822 32.51006078315212 16.483818123845538 5.494606041281804 5.494606041281804 0.0 -0.0 0.7797338016261434 0.6261111711203069
164 44.1374144370877 36.902997484459455 35.05891234486887 16.6494832501754 5.549827750058448 5.549827750058448 0.0 0.0 0.6966086930688543 0.7174512727293072
165 60.6070993734561 25.235295602164193 13.520231857727497 16.6494832501754 5.549827750058448 5.549827750058448 0.0 -0.0 0.8994069955971553 0.43711217813153935
2_R 63.992269391840246 16.21468356226371 22.604178475183005 5.7109145654304205 1.9036381884767635 1.9036381884767635 0.0 -0.0 0.8896314041555925 0.4566792799549252
6_B 19.553833579746073 62.5324894839722 27.62391020929424 5.943981410192225 1.9813271367307477 1.9813271367307477 0.0 0.0 0.643710445538684 0.7652691437033046
9_B 48.53142546865985 66.82864886434538 51.24287640808253 6.125002593867979 2.041667531289328 2.041667531289328 0.0 -0.0 0.7176002965020949 0.6964551776389529
11_F 15.456060643137189 32.54012769035001 -0.2863019290406754 6.24873585393144 2.082911951310498 2.082911951310498 0.0 0.0 0.49983922045674145 0.866118209999765
19_B 13.62732982709828 64.39500642370909 33.65308349757779 6.7691747398806985 2.2563915799602596 2.2563915799602596 0.0 0.0 0.6434542777811493 0.7654845474633303
22_B 13.320550410578813 65.89057367816079 28.207022725125984 6.975326801833651 2.32510893394455 2.32510893394455 0.0 -0.0 0.8910647246123514 0.45387625687131333
23_B 45.97278055228256 64.47986075655488 47.58085917758087 7.04543000165871 2.3484766672196216 2.3484766672196216 0.0 -0.0 0.7582829367961579 0.651925599868416
25_B 11.773843594900645 65.97463328937755 54.687486746318434 7.187757128757154 2.395919042919038 2.395919042919038 0.0 0.0 0.6637035342538496 0.7479957343587923
26_R 63.40285989340104 53.10948479518325 30.376476077751036 7.259995288861523 2.4199984296204664 2.4199984296204664 0.0 0.0 0.5361151400853296 0.8441448670526212
30_T 20.05887705751599 -2.557578015509968 23.061593974161873 7.556281317233082 2.518760439077709 2.518760439077709 0.0 -0.0 0.8433777540022546 0.5373210995802349
36_B 35.71328676403542 63.566835963951355 58.026905702031044 8.023535658615788 2.6745118862053356 2.6745118862053356 0.0 -0.0 0.739632735620696 0.6730107104632479
43_L -1.0564084689282183 41.92519764299279 40.59650983474688 8.605307636450556 2.8684358788167996 2.8684358788167996 0.0 -0.0 0.8971229945165649 0.4417808650333688
45_T 50.44946434873631 -6.598855461067977 39.068026976488355 8.77914638204932 2.926382127349729 2.926382127349729 0.0 -0.0 0.8021859139948743 0.5970743332184094
46_T 19.17226704347897 -5.198191537086579 13.569425526453859 8.8673782700451 2.955792756681742 2.955792756681742 0.0 0.0 0.6689296931602822 0.7433256793683982
48_R 61.75660050714557 46.49914469748644 14.22377311208183 9.046511193624283 3.0155037312080957 3.0155037312080957 0.0 0.0 0.43861391052531945 0.8986756019241242
49_T 26.652564995783823 -1.9450846472661212 7.549316679075272 9.137430142649025 3.0458100475496206 3.0458100475496206 0.0 -0.0 0.7611420715427216 0.6485851886434459
50_F 25.26120442513554 19.784782666868008 -0.8373249665927389 9.229262842302486 3.0764209474341357 3.0764209474341357 0.0 0.0 0.5689873473401131 0.8223462765568174
53_BR 65.57138153821931 52.122613609597394 60.411745686945096 9.510335740899334 3.170111913633154 3.170111913633154 0.0 0.0 0.4937832216878833 0.8695850332081013
53_FL 4.671381538219309 52.122613609597394 -0.4882543130549024 9.510335740899334 3.170111913633154 3.170111913633154 0.0 0.0 0.4937832216878833 0.8695850332081013
53_FR 65.57138153821931 52.122613609597394 -0.4882543130549024 9.510335740899334 3.170111913633154 3.170111913633154 0.0 0.0 0.4937832216878833 0.8695850332081013