ITEM: TIMESTEP
337
ITEM: NUMBER OF ATOMS
204
ITEM: BOX BOUNDS ff ff ff
0 60.9
60.9 0
60.9 0
ITEM: ATOMS id x y z AsphericalShapeX AsphericalShapeY AsphericalShapeZ OrientationX OrientationY OrientationZ OrientationW
1 46.701184186879026 45.458584999092324 26.700359518948996 2.385870693418599 0.7952902311395381 0.7952902311395381 0.0 -0.0 0.7863642711635499 0.6177630881150306
2 16.865347837049388 10.900754324087867 24.784723719813748 2.409849092528685 0.8032830308428857 0.8032830308428857 0.0 -0.0 0.8896314041555925 0.4566792799549252
3 13.148700833502227 27.35147317511357 58.015377478224885 2.434068478556212 0.8113561595187383 0.8113561595187383 0.0 0.0 0.631512325711268 0.7753658378305981
4 17.733784883391984 57.04765971667329 45.4604288706136 2.4585312734600278 0.8195104244866683 0.8195104244866683 0.0 0.0 0.5765741652112841 0.8170448164029381
5 45.37924505464198 7.05175376408096 13.829444779746657 2.4832399235399545 0.827746641179976 0.827746641179976 0.0 -0.0 0.8873914294477543 0.4610167577677315
6 28.071072484249004 0.820946604892763 21.002672825380923 2.508196899681587 0.8360656332272016 0.8360656332272016 0.0 0.0 0.643710445538684 0.7652691437033046
7 40.212537236650306 0.7337850430544336 26.658662658750966 2.533404697603387 0.844468232534466 0.844468232534466 0.0 -0.0 0.7603958793842515 0.6494598575858641
8 46.61245349279698 34.36895436439432 12.660678461206038 2.5588658381061156 0.852955279368703 0.852955279368703 0.0 -0.0 0.7854601334426244 0.6189122545016335
9 47.92505659064776 59.25138092498174 52.11365307596202 2.5845828673250586 0.8615276224416877 0.8615276224416877 0.0 -0.0 0.7176002965020949 0.6964551776389529
10 10.172500787602713 2.40190712941402 13.063144073147116 2.6105583569845434 0.8701861189948522 0.8701861189948522 0.0 0.0 0.38534345666417513 0.9227732226317065
11 27.34014609986535 18.12536202361634 2.744432816469418 2.636794904655214 0.8789316348850672 0.8789316348850672 0.0 0.0 0.49983922045674145 0.866118209999765
12 3.2930553984021045 4.2543663051500635 22.76770520606624 2.663295134013666 0.8877650446712193 0.8877650446712193 0.0 0.0 0.2746680171135514 0.9615391205639581
13 12.944902202159241 55.02901966668322 27.32480779129686 2.690061695104979 0.8966872317016532 0.8966872317016532 0.0 -0.0 0.7886508549344257 0.614841303924191
14 17.000596633878533 30.656606252056786 23.87051860364985 2.7170972646074985 0.9056990882024883 0.9056990882024883 0.0 -0.0 0.7750680292508737 0.6318777967559605
15 23.25883837494977 51.256816441360144 24.990865414711145 2.7444045461007196 0.9148015153669063 0.9148015153669063 0.0 0.0 0.6340811782098568 0.7732664866913604
16 15.283309026447633 37.629186891266585 53.978919922434585 2.771986270335608 0.9239954234451957 0.9239954234451957 0.0 -0.0 0.7629176367612683 0.6464956918020424
17 29.058204067717362 18.145978787206325 35.82143050228304 2.799845195507484 0.9332817318358242 0.9332817318358242 0.0 0.0 0.6579222258448839 0.7530858813836
18 39.73178324914261 36.65570240528213 10.35351718124277 2.827984107532145 0.9426613691773778 0.9426613691773778 0.0 0.0 0.506211649243881 0.8624092799650234
19 13.203654497759379 14.76347512014448 41.79781772363364 2.8564058203242224 0.9521352734413997 0.9521352734413997 0.0 0.0 0.6434542777811493 0.7654845474633303
20 25.56901171157369 57.15506169031544 23.57555756500061 2.885113176078665 0.961704392026226 0.961704392026226 0.0 -0.0 0.7861857262579329 0.6179902942832407
21 41.49819402893131 22.465835360855973 46.81472409877203 2.9141090455549925 0.971369681851652 0.971369681851652 0.0 0.0 0.6069811502172251 0.7947162281474907
22 6.13442236274437 49.47937797202193 45.02336935571689 2.9433963283642695 0.9811321094547646 0.9811321094547646 0.0 -0.0 0.8910647246123514 0.45387625687131333
23 44.06915687739979 4.057529014761274 48.47641706364162 2.9729779532592904 0.9909926510864228 0.9909926510864228 0.0 -0.0 0.7582829367961579 0.651925599868416
24 25.566679999817147 12.42493206838897 52.574605298803384 3.0028568784270924 1.0009522928090353 1.0009522928090353 0.0 0.0 0.5255054740936084 0.8507902189715464
25 17.80386167375047 59.37934958982494 1.8954460306900929 3.033036091785138 1.0110120305950374 1.0110120305950374 0.0 0.0 0.6637035342538496 0.7479957343587923
26 56.738242569901026 10.090691206848346 41.60534063022927 3.063518611279853 1.0211728704266265 1.0211728704266265 0.0 0.0 0.5361151400853296 0.8441448670526212
27 60.444796578299346 20.29440565584755 20.688247655421083 3.0943074851886747 1.031435828396237 1.031435828396237 0.0 -0.0 0.7297620279401082 0.6837012378054764
28 17.16700767204984 42.95626742168791 37.30323490102885 3.1254057924246146 1.041801930808201 1.041801930808201 0.0 -0.0 0.9828164757017253 0.18458541407500267
29 44.75632851011351 29.733412918667156 28.906293135534096 3.1568166428443156 1.052272214281441 1.052272214281441 0.0 -0.0 0.8740853421614372 0.4857723897243679
30 18.747070317467987 1.0640888326527222 23.19260476254389 3.1885431775589796 1.0628477258529958 1.0628477258529958 0.0 -0.0 0.8433777540022546 0.5373210995802349
31 49.909977683442236 38.79180470732963 49.67317752859556 3.220588569248535 1.0735295230828485 1.0735295230828485 0.0 0.0 0.6952778540174372 0.7187410560924617
32 4.119713097828122 40.51463536054149 39.37593874122192 3.2529560224788336 1.0843186741596142 1.0843186741596142 0.0 0.0 0.6353234605105568 0.7722461398575527
33 26.558141612408868 19.099870794724858 23.976039315947705 3.285648774022203 1.0952162580073974 1.0952162580073974 0.0 0.0 0.6411270229476993 0.7674347792784871
34 8.834424746351063 18.866144672822397 37.737862266562594 3.3186700931810127 1.1062233643936756 1.1062233643936756 0.0 -0.0 0.7453722743584635 0.6666484625480594
35 30.977592079746163 43.39171439681563 40.43886456272917 3.3520232821147364 1.1173410940382489 1.1173410940382489 0.0 -0.0 0.7109313362059317 0.7032614273514853
36 31.119613320158685 14.340318620783066 12.698248983541061 3.385711676169982 1.1285705587233321 1.1285705587233321 0.0 -0.0 0.739632735620696 0.6730107104632479
37 14.715929926711075 51.476243634556425 20.6392979284261 3.4197386442143216 1.13991288140478 1.13991288140478 0.0 0.0 0.5163603530767541 0.8563714064414165
38 22.16161003798438 60.613107134673626 12.270577471597992 3.4541075889728465 1.1513691963242787 1.1513691963242787 0.0 0.0 0.5145463711011363 0.8574625542766586
39 10.302749886432629 28.25344481815383 28.109401238565923 3.488821947368728 1.1629406491229095 1.1629406491229095 0.0 0.0 0.5880831456971182 0.8088004783300898
40 55.84619602325957 24.359535084854112 15.742131666311352 3.5238851908667224 1.174628396955564 1.174628396955564 0.0 -0.0 0.8608342640850161 0.5088854191045453
41 58.450807804184954 10.660981476196028 49.85967601740481 3.5593008258203374 1.1864336086067793 1.1864336086067793 0.0 0.0 0.5813114541301716 0.8136811373609846
42 14.96221252828317 59.48045120970229 40.12807331671417 3.595072393822653 1.198357464607551 1.198357464607551 0.0 0.0 0.6858728758951139 0.7277213739552836
43 3.286354881991784 8.123684107970085 29.773851079109065 3.631203472060227 1.2104011573534195 1.2104011573534195 0.0 -0.0 0.8971229945165649 0.4417808650333688
44 38.418689968731954 8.861797935385605 36.901373463952616 3.6676976736710936 1.2225658912236863 1.2225658912236863 0.0 -0.0 0.7662793896249596 0.6425075073771507
45 25.359525624628287 34.1091830156942 31.711769926721292 3.704558648105655 1.234852882701884 1.234852882701884 0.0 -0.0 0.8021859139948743 0.5970743332184094
46 20.229216170292 31.911340952960924 13.611252661262412 3.741790081492241 1.247263360497414 1.247263360497414 0.0 0.0 0.6689296931602822 0.7433256793683982
47 50.41874247392425 14.84134859084066 14.849414787730968 3.7793956970051026 1.2597985656683677 1.2597985656683677 0.0 -0.0 0.8121614142020023 0.5834328044268712
48 59.37374962711022 54.47409302157542 19.79724736280014 3.8173792552372094 1.2724597517457374 1.2724597517457374 0.0 0.0 0.43861391052531945 0.8986756019241242
49 21.42216585419641 22.644053585442684 3.938261858141251 3.8557445545759568 1.2852481848586546 1.2852481848586546 0.0 -0.0 0.7611420715427216 0.6485851886434459
50 31.79371454327059 18.673974511691704 52.53423854371476 3.8944954315832976 1.2981651438611086 1.2981651438611086 0.0 0.0 0.5689873473401131 0.8223462765568174
51 9.620770787868421 19.961587971315424 40.9522511023761 3.9336357613792887 1.3112119204597499 1.3112119204597499 0.0 -0.0 0.9816329176571261 0.1907794930592849
52 34.914870997730276 53.568449104645836 23.431046844575107 3.9731694580293757 1.3243898193431263 1.3243898193431263 0.0 -0.0 0.8312938914163103 0.5558331279205367
53 14.185645077023148 50.54788790622942 9.56335480656752 4.013100474936271 1.337700158312102 1.337700158312102 0.0 0.0 0.4937832216878833 0.8695850332081013
54 32.172845471214224 50.141534810638966 41.54568233149467 4.053432805234936 1.3511442684116426 1.3511442684116426 0.0 -0.0 0.7425013715714329 0.6698445440656666
55 19.132481184327947 46.63387776816382 3.237652960420334 4.053432805234936 1.3511442684116426 1.3511442684116426 0.0 -0.0 0.899222239431846 0.4374921303419936
56 46.75116833411818 10.86391685617713 24.1729771103827 4.094170482192004 1.3647234940640014 1.3647234940640014 0.0 0.0 0.591041689671776 0.8066410112744902
57 53.45882240611124 60.044946488537235 49.56677829166198 4.094170482192004 1.3647234940640014 1.3647234940640014 0.0 0.0 0.6906372933410847 0.7232013060320761
58 37.95989838781469 51.95845010673412 32.65754458820441 4.135317579609098 1.378439193203029 1.378439193203029 0.0 -0.0 0.9778925487455288 0.20910801779935065
59 30.374906153397365 57.66869664427141 24.559155416628386 4.135317579609098 1.378439193203029 1.378439193203029 0.0 -0.0 0.8334397726994561 0.5526103014626843
60 39.823928120880396 28.440941526076905 60.60349414768668 4.176878212230284 1.3922927374100926 1.3922927374100926 0.0 -0.0 0.8251393648538317 0.5649292243888745
61 8.13065259501399 39.85181333603093 37.86284589651212 4.176878212230284 1.3922927374100926 1.3922927374100926 0.0 -0.0 0.8342848482439009 0.5513336485202505
62 13.448418187197818 47.28007895230402 27.400234787456192 4.218856536153396 1.4062855120511317 1.4062855120511317 0.0 0.0 0.6993489688984815 0.7147803996337831
63 36.67912776016358 53.59245164173887 53.191838168833314 4.218856536153396 1.4062855120511317 1.4062855120511317 0.0 0.0 0.6638694557235675 0.747848477806363
64 38.61350957104783 49.39416968696476 42.13916911495012 4.261256749245925 1.4204189164153 1.4204189164153 0.0 0.0 0.5469534661185369 0.8371630103515794
65 23.24530240117458 13.701774958251775 6.332783292252108 4.261256749245925 1.4204189164153 1.4204189164153 0.0 0.0 0.534266604389083 0.8453160328744268
66 40.99479829401991 18.21260414004424 17.35516116420854 4.3040830915643555 1.434694363854788 1.434694363854788 0.0 0.0 0.49259387534365895 0.8702593142126752
67 60.194457735829204 11.717105116871707 13.295858141673795 4.3040830915643555 1.434694363854788 1.434694363854788 0.0 -0.0 0.7991221049958454 0.6011687461162707
68 37.08730232597138 28.524582550406354 18.587250943847117 4.347339845778694 1.4491132819262418 1.4491132819262418 0.0 -0.0 0.8113628171424923 0.5845428803420658
69 41.66082401954505 9.954338874979008 57.17204346500076 4.347339845778694 1.4491132819262418 1.4491132819262418 0.0 0.0 0.69974083585519 0.7143967823532522
70 52.38514088067011 51.84610399492988 25.142931988130318 4.391031337600464 1.4636771125334764 1.4636771125334764 0.0 -0.0 0.9226100212719841 0.3857340387475665
71 29.08444038211382 18.6359748196396 27.185580292285785 4.391031337600464 1.4636771125334764 1.4636771125334764 0.0 -0.0 0.8908476943010929 0.4543020862360491
72 4.025052081702289 44.402405220038595 8.370070936394633 4.435161936215171 1.4783873120717204 1.4783873120717204 0.0 -0.0 0.9180976465577227 0.39635427509384946
73 52.10679035625362 22.063772498393355 38.07952566018961 4.435161936215171 1.4783873120717204 1.4783873120717204 0.0 0.0 0.6852526383261238 0.7283054453092375
74 56.903654600913875 44.99169667555761 14.112558152996694 4.47973605471947 1.49324535157316 1.49324535157316 0.0 0.0 0.6622208999947843 0.7493086677799063
75 56.39413468823155 4.8490118521276475 29.382392569567024 4.47973605471947 1.49324535157316 1.49324535157316 0.0 0.0 0.6669694181073614 0.7450850926636016
76 3.27263414805919 11.940220528872581 22.591854116042516 4.524758150562339 1.5082527168541295 1.5082527168541295 0.0 0.0 0.4849872773235938 0.8745212066235144
77 18.434454874884523 46.63489009744731 6.633257834214564 4.524758150562339 1.5082527168541295 1.5082527168541295 0.0 -0.0 0.724549744492829 0.6892225096116464
78 7.632063013216884 6.829114883230399 7.133717003114562 4.570232725990954 1.5234109086636514 1.5234109086636514 0.0 0.0 0.646327957303847 0.7630597431442944
79 3.1938261756397184 26.0878552095647 21.157171675726723 4.570232725990954 1.5234109086636514 1.5234109086636514 0.0 0.0 0.4210348644808628 0.9070444547493698
80 52.012961107355416 18.907243364141948 20.14464250056205 4.616164328500713 1.5387214428335587 1.5387214428335587 0.0 0.0 0.5786941501693628 0.8155446527074768
81 5.41953812407512 57.84617252285997 39.10899470996612 4.616164328500713 1.5387214428335587 1.5387214428335587 0.0 0.0 0.683142879342022 0.730284743373632
82 13.495928943358066 14.591844040776897 59.89112867227011 4.662557551290105 1.5541858504300252 1.5541858504300252 0.0 0.0 0.3480344086077516 0.937481760049257
83 17.43101266164881 11.484528836249902 3.931645847943156 4.662557551290105 1.5541858504300252 1.5541858504300252 0.0 -0.0 0.8280938516825816 0.560589486884571
84 31.896051021464753 37.020174448105195 19.021276991932677 4.709417033720117 1.5698056779067138 1.5698056779067138 0.0 -0.0 0.8521868438699086 0.5232375972109076
85 17.432353089635715 38.76895031716747 26.90730897784694 4.709417033720117 1.5698056779067138 1.5698056779067138 0.0 0.0 0.2683204071818837 0.9633297250109892
86 12.039246776371538 41.14599108975796 57.14392521250131 4.7567474617780094 1.5855824872593514 1.5855824872593514 0.0 0.0 0.5717525694490604 0.8204261083902665
87 22.961239398839897 10.173100954199693 39.73938192867851 4.7567474617780094 1.5855824872593514 1.5855824872593514 0.0 -0.0 0.7407334016199733 0.6717990977401677
88 24.33491143322311 47.55243586794413 56.192926451340384 4.804553568546098 1.6015178561820218 1.6015178561820218 0.0 0.0 0.6524446383875427 0.7578363898885753
89 9.125282720041014 26.914505929422468 38.580895022565585 4.804553568546098 1.6015178561820218 1.6015178561820218 0.0 0.0 0.3815125934194192 0.9243636411404275
90 14.291912932430705 4.238273672355475 45.74899218966589 4.852840134674825 1.6176133782249285 1.6176133782249285 0.0 -0.0 0.7664413141092511 0.642314340511314
91 37.93189289025962 6.10215204907243 33.819390916298104 4.852840134674825 1.6176133782249285 1.6176133782249285 0.0 -0.0 0.7164030651197486 0.6976866404676452
92 56.684956817019454 22.20534379530349 42.82589052455267 4.901611988861036 1.6338706629536761 1.6338706629536761 0.0 0.0 0.3159382626609752 0.9487797500931208
93 23.05599904089915 41.333895815804475 42.151748160049465 4.901611988861036 1.6338706629536761 1.6338706629536761 0.0 -0.0 0.807675111463051 0.5896277760783901
94 55.16872448365248 9.291827305207068 46.39766609030689 4.950874008330854 1.6502913361102984 1.6502913361102984 0.0 0.0 0.5856043209472178 0.8105970511221638
95 43.884604848468165 26.50214562383014 54.454822836974515 4.950874008330854 1.6502913361102984 1.6502913361102984 0.0 -0.0 0.8283891439806925 0.5601530381377355
96 35.65529334064782 2.8640644233202313 39.57804924568348 5.000631119327222 1.6668770397757602 1.6668770397757602 0.0 0.0 0.6380161188650698 0.7700230074928626
97 18.399370689520016 26.41874611913864 27.374702996768793 5.000631119327222 1.6668770397757602 1.6668770397757602 0.0 0.0 0.5652655734899162 0.8249089837231233
98 23.294670001510625 20.618521201348376 39.716563250664194 5.050888297602779 1.6836294325342642 1.6836294325342642 0.0 -0.0 0.9884337224668884 0.15165347437579585
99 47.47956059112792 26.827857328040377 12.065317842899907 5.050888297602779 1.6836294325342642 1.6836294325342642 0.0 0.0 0.644584962479319 0.7645326848117973
100 35.097665161882034 27.42273468988042 54.02248640724989 5.101650568917162 1.7005501896390498 1.7005501896390498 0.0 -0.0 0.7665764345255346 0.6421530736748979
101 15.459516112139475 33.156106716892005 59.245738964841266 5.101650568917162 1.7005501896390498 1.7005501896390498 0.0 -0.0 0.7486465484609144 0.6629693397718779
102 43.73107289235012 23.980477316638023 14.48246347446631 5.1529230095398 1.7176410031799367 1.7176410031799367 0.0 -0.0 0.764238184631255 0.644934102952793
103 27.836976537381407 20.5069110204953 9.106605824789082 5.1529230095398 1.7176410031799367 1.7176410031799367 0.0 -0.0 0.7262700822056904 0.6874094614514261
104 42.005957402370505 49.62557799839413 43.66910631811304 5.204710746757591 1.7349035822525074 1.7349035822525074 0.0 0.0 0.6864264585310771 0.7271992278794606
105 19.265193638392578 0.0701029846428059 20.470318924388973 5.204710746757591 1.7349035822525074 1.7349035822525074 0.0 -0.0 0.8498704758576332 0.5269916263713497
106 15.94249563325789 22.748866853103547 54.07294956194956 5.257018959387241 1.7523396531290811 1.7523396531290811 0.0 -0.0 0.793590538753224 0.6084521811953406
107 45.63851851085345 4.014764816986551 18.340069050119872 5.257018959387241 1.7523396531290811 1.7523396531290811 0.0 -0.0 0.8299364941277125 0.5578578812878792
108 54.147153026609864 5.234812308543586 2.108891126946365 5.309852878293739 1.7699509594312253 1.7699509594312253 0.0 -0.0 0.7596155095013813 0.650372414640225
109 9.553284508671775 1.230175344131344 50.00789286543762 5.309852878293739 1.7699509594312253 1.7699509594312253 0.0 -0.0 0.746179639226726 0.6657446552571586
110 33.384638561193945 5.104192007229735 46.598270707755525 5.363217786912928 1.7877392623042874 1.7877392623042874 0.0 -0.0 0.7434755474029917 0.6687631198068729
111 40.25197536156161 60.85003949753603 14.633631126309922 5.363217786912928 1.7877392623042874 1.7877392623042874 0.0 -0.0 0.7635489887521677 0.6457499065238353
112 47.73596552552363 3.852308176379178 24.88529037085037 5.417119021780132 1.8057063405933995 1.8057063405933995 0.0 -0.0 0.925703395166632 0.3782502137170186
113 13.68701601201076 9.554284426772433 21.786828304938158 5.417119021780132 1.8057063405933995 1.8057063405933995 0.0 -0.0 0.7476030998596368 0.6641457709571461
114 4.332754453230163 25.931428753100533 37.29668663938182 5.47156197306386 1.8238539910212872 1.8238539910212872 0.0 -0.0 0.7095009508808979 0.7047044775642494
115 25.976707061642045 42.87523663372905 59.09819355468086 5.47156197306386 1.8238539910212872 1.8238539910212872 0.0 0.0 0.692332939305712 0.7215782016887105
116 19.425273356213374 14.913149660020714 50.00532298068523 5.526552085104571 1.8421840283681696 1.8421840283681696 0.0 0.0 0.4838188577050026 0.8751681626573412
117 5.619401090754817 35.85215316506474 28.476044833601794 5.526552085104571 1.8421840283681696 1.8421840283681696 0.0 0.0 0.4072390243389004 0.9133216175343166
118 43.77918690295565 10.097423062633755 1.546713987566265 5.582094856959181 1.8606982856530616 1.8606982856530616 0.0 -0.0 0.9854258972554679 0.17010526452245991
119 32.09867718706137 28.462705504065582 3.7671545656955274 5.582094856959181 1.8606982856530616 1.8606982856530616 0.0 0.0 0.693566054094668 0.720393037589587
120 38.79772325412394 39.82187831210452 34.56636447850675 5.638195842951292 1.8793986143170989 1.8793986143170989 0.0 -0.0 0.8546373086497397 0.5192254526349123
121 58.690465103966 25.538602212848588 58.19499346305979 5.638195842951292 1.8793986143170989 1.8793986143170989 0.0 -0.0 0.738138054050796 0.6746496966293722
122 50.665891683374404 33.379555497069624 51.9532603952108 5.694860653226226 1.8982868844087553 1.8982868844087553 0.0 0.0 0.30497028615780525 0.9523618663936657
123 40.52806519513815 36.598836383114644 43.824732923155736 5.694860653226226 1.8982868844087553 1.8982868844087553 0.0 -0.0 0.8240326158671573 0.5665423620411186
124 43.87851274600721 36.01655440612498 54.31591107700946 5.752094954312265 1.917364984770748 1.917364984770748 0.0 -0.0 0.7351480847541838 0.6779065521753388
125 28.18478146688571 41.45513123137166 43.57419070309234 5.752094954312265 1.917364984770748 1.917364984770748 0.0 0.0 0.6354145425399089 0.7721711980699606
126 29.19006040553481 18.985235199094333 44.77847455077406 5.809904469687097 1.936634823229016 1.936634823229016 0.0 -0.0 0.9631928649301144 0.2688112812880415
127 3.147791713714934 32.506820255797265 46.39273673029964 5.809904469687097 1.936634823229016 1.936634823229016 0.0 0.0 0.6645731125154195 0.7472232451694524
128 11.922216711498404 44.067711930377925 49.768851552858386 5.868294980350436 1.9560983267834768 1.9560983267834768 0.0 -0.0 0.837305869343264 0.5467347447925007
129 41.08836571017844 37.69603723736553 5.502132227481399 5.868294980350436 1.9560983267834768 1.9560983267834768 0.0 0.0 0.6718759690179156 0.7406636768846148
130 34.96252034516024 55.469057301174324 6.793495350437269 5.927272325402207 1.9757574418007198 1.9757574418007198 0.0 -0.0 0.8172568989423515 0.5762735124323614
131 8.676837838924836 24.33400459695645 53.338885194926476 5.927272325402207 1.9757574418007198 1.9757574418007198 0.0 0.0 0.5650588956672867 0.8250505708302167
132 32.03346908031214 52.133074286479015 58.188418051987234 5.98684240262587 1.9956141342085967 1.9956141342085967 0.0 0.0 0.5632303093681869 0.8262999568008076
133 28.040034690506054 56.20633716300221 38.35356514842872 5.98684240262587 1.9956141342085967 1.9956141342085967 0.0 0.0 0.7047758212396541 0.7094300823872436
134 56.45516425490946 39.108610941314254 46.59173999195833 6.047011169078786 2.015670389692919 2.015670389692919 0.0 -0.0 0.7457546235329385 0.6662207152882933
135 51.04616745597396 1.8315463147963311 60.50866002030034 6.047011169078786 2.015670389692919 2.015670389692919 0.0 0.0 0.5807371118896761 0.8140911539097067
136 17.41245659132602 47.176326078013375 0.02483385841060226 6.107784641687886 2.035928213895969 2.035928213895969 0.0 -0.0 0.7765636880913803 0.6300387593933514
137 59.91939259141065 48.03855004134815 29.951333142499735 6.107784641687886 2.035928213895969 2.035928213895969 0.0 -0.0 0.9207785641385271 0.39008567754147583
138 43.389292123042395 24.29196460084436 19.765661198194593 6.169168897850944 2.0563896326169786 2.0563896326169786 0.0 0.0 0.5933031767685688 0.8049790931672228
139 48.34407793593701 24.42294185287644 57.7770914543769 6.169168897850944 2.0563896326169786 2.0563896326169786 0.0 0.0 0.36293328461656904 0.9318151270061183
140 1.827465635058401 8.702706418101751 38.3757642921097 6.231170076044845 2.0770566920149416 2.0770566920149416 0.0 0.0 0.5657838974393875 0.8245535649054563
141 4.830689985113178 47.75332233030274 48.86614173876081 6.231170076044845 2.0770566920149416 2.0770566920149416 0.0 0.0 0.5898626798291705 0.8075035720941112
142 1.575451002826044 39.29072598511951 58.63683926454155 6.293794376438885 2.0979314588129814 2.0979314588129814 0.0 0.0 0.494526605223718 0.8691624915548904
143 29.997749009926203 17.79194342534599 6.046284226024338 6.293794376438885 2.0979314588129814 2.0979314588129814 0.0 0.0 0.6621201748514545 0.7493976741721844
144 15.131359809688021 34.17799298290852 47.538369266913485 6.357048061515532 2.1190160205051844 2.1190160205051844 0.0 -0.0 0.8358120424685423 0.5490156916378287
145 58.77947607225408 45.58604734492991 20.141189432360473 6.357048061515532 2.1190160205051844 2.1190160205051844 0.0 -0.0 0.7380766977143534 0.6747168208152773
146 33.336560685760006 52.18282285461314 51.07292506027152 6.420937456695857 2.140312485565286 2.140312485565286 0.0 0.0 0.5600689403365469 0.8284460043179022
147 39.83847131478316 21.980443110504005 43.67495362034073 6.420937456695857 2.140312485565286 2.140312485565286 0.0 -0.0 0.8053653384335279 0.5927787712543771
148 0.9515207538754634 31.281443211001566 51.18464470258799 6.485468950972643 2.1618229836575344 2.1618229836575344 0.0 -0.0 0.9475491048281723 0.31961022189430877
149 51.31311020775257 13.655889415868073 26.902124178200275 6.485468950972643 2.1618229836575344 2.1618229836575344 0.0 -0.0 0.8855269061838191 0.46458809543994295
150 27.01864738657206 8.869046956533781 17.79668876917254 6.550648997549113 2.1835496658497062 2.1835496658497062 0.0 -0.0 0.8997163709941051 0.43647502994466686
151 33.673242038517245 34.97340675180634 38.473166988226374 6.550648997549113 2.1835496658497062 2.1835496658497062 0.0 0.0 0.6949034215940625 0.7191030765174521
152 57.17781682298502 32.63921403018546 12.7085918516728 6.6164841144842255 2.205494704828053 2.205494704828053 0.0 0.0 0.6496096252583186 0.7602679361723385
153 28.83531761591063 3.752546232908515 6.650390860578953 6.6164841144842255 2.205494704828053 2.205494704828053 0.0 0.0 0.6980264017745981 0.7160720232110785
154 52.76814496454852 7.788390808064684 7.2364917711778025 6.682980885344485 2.2276602951148328 2.2276602951148328 0.0 -0.0 0.9126309719920443 0.4087844284716046
155 21.515612445535464 35.89988832438938 4.98296177805821 6.682980885344485 2.2276602951148328 2.2276602951148328 0.0 0.0 0.34897032679986184 0.9371337743423815
156 24.589414399419507 28.048880010674345 52.323733719680234 6.750145959862474 2.250048653287501 2.250048653287501 0.0 0.0 0.6995675014656925 0.7145665195718649
157 21.131421485275595 28.227031831903698 46.443024448770075 6.750145959862474 2.250048653287501 2.250048653287501 0.0 0.0 0.63565327495599 0.7719746848425306
158 49.188917452494586 9.363531704439634 44.532788320943695 6.817986054601629 2.272662018200542 2.272662018200542 0.0 -0.0 0.7426985308561326 0.6696259345814963
159 10.506470056861104 29.635025077255836 8.352706566235131 6.817986054601629 2.272662018200542 2.272662018200542 0.0 0.0 0.4891044501540252 0.8722252213961303
160 51.140423637189514 35.18309770911932 22.082239697119576 6.886507953627902 2.2955026512093135 2.2955026512093135 0.0 0.0 0.6466947184788655 0.7627489371290798
161 33.140728407040946 15.557803047504269 35.80633573971033 6.886507953627902 2.2955026512093135 2.2955026512093135 0.0 0.0 0.6377575578887067 0.7702371695496348
162 22.532379505013775 15.815463729557019 11.781605764073346 6.955718509188352 2.318572836396104 2.318572836396104 0.0 0.0 0.6701572236966805 0.7422191694689361
163 40.859656842257344 59.428861944545865 37.198249985794156 6.955718509188352 2.318572836396104 2.318572836396104 0.0 -0.0 0.7797338016261434 0.6261111711203069
164 49.501859957291735 47.37651154947701 33.28741285126732 7.02562464239609 2.3418748807986964 2.3418748807986964 0.0 0.0 0.6966086930688543 0.7174512727293072
165 41.72375494101495 20.00516520411218 35.6555739724838 7.02562464239609 2.3418748807986964 2.3418748807986964 0.0 -0.0 0.8994069955971553 0.43711217813153935
6_B 28.071072484249004 61.72094660489276 21.002672825380923 2.508196899681587 0.8360656332272016 0.8360656332272016 0.0 0.0 0.643710445538684 0.7652691437033046
7_B 40.212537236650306 61.63378504305443 26.658662658750966 2.533404697603387 0.844468232534466 0.844468232534466 0.0 -0.0 0.7603958793842515 0.6494598575858641
9_T 47.92505659064776 -1.64861907501826 52.11365307596202 2.5845828673250586 0.8615276224416877 0.8615276224416877 0.0 -0.0 0.7176002965020949 0.6964551776389529
25_T 17.80386167375047 -1.5206504101750582 1.8954460306900929 3.033036091785138 1.0110120305950374 1.0110120305950374 0.0 0.0 0.6637035342538496 0.7479957343587923
27_L -0.4552034217006522 20.29440565584755 20.688247655421083 3.0943074851886747 1.031435828396237 1.031435828396237 0.0 -0.0 0.7297620279401082 0.6837012378054764
30_B 18.747070317467987 61.96408883265272 23.19260476254389 3.1885431775589796 1.0628477258529958 1.0628477258529958 0.0 -0.0 0.8433777540022546 0.5373210995802349
38_T 22.16161003798438 -0.28689286532637226 12.270577471597992 3.4541075889728465 1.1513691963242787 1.1513691963242787 0.0 0.0 0.5145463711011363 0.8574625542766586
42_T 14.96221252828317 -1.4195487902977106 40.12807331671417 3.595072393822653 1.198357464607551 1.198357464607551 0.0 0.0 0.6858728758951139 0.7277213739552836
48_L -1.526250372889777 54.47409302157542 19.79724736280014 3.8173792552372094 1.2724597517457374 1.2724597517457374 0.0 0.0 0.43861391052531945 0.8986756019241242
57_T 53.45882240611124 -0.8550535114627635 49.56677829166198 4.094170482192004 1.3647234940640014 1.3647234940640014 0.0 0.0 0.6906372933410847 0.7232013060320761
59_T 30.374906153397365 -3.231303355728592 24.559155416628386 4.135317579609098 1.378439193203029 1.378439193203029 0.0 -0.0 0.8334397726994561 0.5526103014626843
60_F 39.823928120880396 28.440941526076905 -0.2965058523133166 4.176878212230284 1.3922927374100926 1.3922927374100926 0.0 -0.0 0.8251393648538317 0.5649292243888745
67_L -0.7055422641707949 11.717105116871707 13.295858141673795 4.3040830915643555 1.434694363854788 1.434694363854788 0.0 -0.0 0.7991221049958454 0.6011687461162707
81_T 5.41953812407512 -3.0538274771400253 39.10899470996612 4.616164328500713 1.5387214428335587 1.5387214428335587 0.0 0.0 0.683142879342022 0.730284743373632
82_F 13.495928943358066 14.591844040776897 -1.008871327729885 4.662557551290105 1.5541858504300252 1.5541858504300252 0.0 0.0 0.3480344086077516 0.937481760049257
90_B 14.291912932430705 65.13827367235547 45.74899218966589 4.852840134674825 1.6176133782249285 1.6176133782249285 0.0 -0.0 0.7664413141092511 0.642314340511314
96_B 35.65529334064782 63.76406442332023 39.57804924568348 5.000631119327222 1.6668770397757602 1.6668770397757602 0.0 0.0 0.6380161188650698 0.7700230074928626
101_F 15.459516112139475 33.156106716892005 -1.6542610351587328 5.101650568917162 1.7005501896390498 1.7005501896390498 0.0 -0.0 0.7486465484609144 0.6629693397718779
105_B 19.265193638392578 60.97010298464281 20.470318924388973 5.204710746757591 1.7349035822525074 1.7349035822525074 0.0 -0.0 0.8498704758576332 0.5269916263713497
107_B 45.63851851085345 64.91476481698655 18.340069050119872 5.257018959387241 1.7523396531290811 1.7523396531290811 0.0 -0.0 0.8299364941277125 0.5578578812878792