ITEM: TIMESTEP
192
ITEM: NUMBER OF ATOMS
201
ITEM: BOX BOUNDS ff ff ff
0 60.9
60.9 0
60.9 0
ITEM: ATOMS id x y z AsphericalShapeX AsphericalShapeY AsphericalShapeZ OrientationX OrientationY OrientationZ OrientationW
1 39.837379683688326 0.010913858936692805 16.419733350071308 1.3623462835200861 0.45411542784002823 0.45411542784002823 0.0 -0.0 0.7863642711635499 0.6177630881150306
2 23.02960245253473 5.059905621497507 26.326728129261856 1.37603809129596 0.45867936376532037 0.45867936376532037 0.0 -0.0 0.8896314041555925 0.4566792799549252
3 12.637162107182409 19.746568696736208 55.293881675673646 1.3898675040276667 0.46328916800922326 0.46328916800922326 0.0 0.0 0.631512325711268 0.7753658378305981
4 29.019454386989494 42.62893733347259 34.272313097060575 1.403835904667999 0.4679453015559973 0.4679453015559973 0.0 0.0 0.5765741652112841 0.8170448164029381
5 1.1063697917639805 18.35164606402669 30.62543505997526 1.4179446900686707 0.47264823002288664 0.47264823002288664 0.0 -0.0 0.8873914294477543 0.4610167577677315
6 26.283299597359402 15.831266867162153 20.30959329200951 1.432195271119957 0.4773984237066532 0.4773984237066532 0.0 0.0 0.643710445538684 0.7652691437033046
7 50.774769965097136 2.8281805031263545 21.09819026907638 1.4465890728918749 0.4821963576306236 0.4821963576306236 0.0 -0.0 0.7603958793842515 0.6494598575858641
8 50.16051863764029 37.19991345582333 3.3076121996522247 1.4611275347765722 0.4870425115921884 0.4870425115921884 0.0 -0.0 0.7854601334426244 0.6189122545016335
9 49.05590471578165 0.4948214689156596 58.49064071290629 1.4758121106323514 0.4919373702107852 0.4919373702107852 0.0 -0.0 0.7176002965020949 0.6964551776389529
10 30.95760171183744 58.24508781872842 15.055555700953972 1.4906442689290398 0.49688142297634624 0.49688142297634624 0.0 0.0 0.38534345666417513 0.9227732226317065
11 24.434395081788256 0.019117560562797564 2.829059427090545 1.505625492894841 0.5018751642982815 0.5018751642982815 0.0 0.0 0.49983922045674145 0.866118209999765
12 13.450555558338987 57.22339976131303 18.22277430609955 1.5207572806646177 0.506919093554869 0.506919093554869 0.0 0.0 0.2746680171135514 0.9615391205639581
13 23.70035139105812 53.59917391147864 44.183991179318106 1.5360411454297556 0.5120137151432518 0.5120137151432518 0.0 -0.0 0.7886508549344257 0.614841303924191
14 21.162667007067096 45.88310799613232 20.23285228032222 1.5514786155894844 0.5171595385298277 0.5171595385298277 0.0 -0.0 0.7750680292508737 0.6318777967559605
15 22.38752800839646 59.29323308305601 25.350376041054535 1.5670712349036724 0.5223570783012226 0.5223570783012226 0.0 0.0 0.6340811782098568 0.7732664866913604
16 20.50027551918139 36.56726136380424 48.3039386534236 1.5828205626472438 0.5276068542157479 0.5276068542157479 0.0 -0.0 0.7629176367612683 0.6464956918020424
17 34.535850203513064 40.47120042681672 40.50713008441346 1.5987281737661012 0.5329093912553704 0.5329093912553704 0.0 0.0 0.6579222258448839 0.7530858813836
18 55.88167422520232 43.484125947746094 59.486703951398404 1.61479565903462 0.5382652196782101 0.5382652196782101 0.0 0.0 0.506211649243881 0.8624092799650234
19 17.03848779485129 10.502903228713295 38.48129985804954 1.631024625214707 0.5436748750715688 0.5436748750715688 0.0 0.0 0.6434542777811493 0.7654845474633303
20 16.091478288498475 53.15107489273304 2.3682005863684745 1.6474166952165072 0.5491388984055037 0.5491388984055037 0.0 -0.0 0.7861857262579329 0.6179902942832407
21 36.18527870784191 26.52918670008564 44.659127355727904 1.6639735082606868 0.5546578360868941 0.5546578360868941 0.0 0.0 0.6069811502172251 0.7947162281474907
22 47.07403014927418 58.820279592136615 1.1380239419332154 1.6806967200423248 0.5602322400141111 0.5602322400141111 0.0 -0.0 0.8910647246123514 0.45387625687131333
23 39.0636913206153 58.92530534383035 44.380345459118885 1.697588002896573 0.565862667632189 0.565862667632189 0.0 -0.0 0.7582829367961579 0.651925599868416
24 23.099107860219256 3.23547299377119 49.50616783871568 1.7146490459657648 0.5715496819885874 0.5715496819885874 0.0 0.0 0.5255054740936084 0.8507902189715464
25 7.7721425307727685 8.436376638668236 18.858747328977888 1.7318815553684226 0.5772938517894741 0.5772938517894741 0.0 0.0 0.6637035342538496 0.7479957343587923
26 55.435143724466165 22.910527999505085 0.5177951733072361 1.7492872543698708 0.5830957514566238 0.5830957514566238 0.0 0.0 0.5361151400853296 0.8441448670526212
27 58.54605068339922 31.193387285040913 12.771538895222664 1.766867883554494 0.5889559611848304 0.5889559611848304 0.0 -0.0 0.7297620279401082 0.6837012378054764
28 60.75542638384355 4.075814857347963 34.94337551090768 1.7846252009998653 0.5948750669999529 0.5948750669999529 0.0 -0.0 0.9828164757017253 0.18458541407500267
29 43.270644913964205 36.93032337610959 24.815365792716744 1.8025609824525342 0.6008536608175082 0.6008536608175082 0.0 -0.0 0.8740853421614372 0.4857723897243679
30 16.236909289864403 11.243937017744557 31.269743800192224 1.820677021505583 0.6068923405018575 0.6068923405018575 0.0 -0.0 0.8433777540022546 0.5373210995802349
31 39.35792764337749 48.376151929105376 47.559592393508815 1.8389751297780212 0.6129917099260038 0.6129917099260038 0.0 0.0 0.6952778540174372 0.7187410560924617
32 15.171769110649457 46.98879273849669 46.65054926759963 1.8574571370959174 0.6191523790319683 0.6191523790319683 0.0 0.0 0.6353234605105568 0.7722461398575527
33 32.136367306512554 10.432088856318474 21.540215920350125 1.876124891675412 0.6253749638918014 0.6253749638918014 0.0 0.0 0.6411270229476993 0.7674347792784871
34 3.894463450894431 22.527692200983758 56.71485359062631 1.8949802603075145 0.631660086769168 0.631660086769168 0.0 -0.0 0.7453722743584635 0.6666484625480594
35 32.04258347764337 33.40403087833671 46.3894576325256 1.9140251285447922 0.6380083761816003 0.6380083761816003 0.0 -0.0 0.7109313362059317 0.7032614273514853
36 22.56649942043586 37.32560979831789 25.83858004268123 1.9332614008899764 0.6444204669633212 0.6444204669633212 0.0 -0.0 0.739632735620696 0.6730107104632479
37 2.8734571499008443 47.46493670875432 60.580504324521854 1.9526910009862974 0.6508970003287624 0.6508970003287624 0.0 0.0 0.5163603530767541 0.8563714064414165
38 8.921376974703929 9.291926564066568 20.439973349502047 1.9723158718099536 0.6574386239366478 0.6574386239366478 0.0 0.0 0.5145463711011363 0.8574625542766586
39 12.611477548779321 20.832152336202046 59.830748630919956 1.9921379758643922 0.6640459919547976 0.6640459919547976 0.0 0.0 0.5880831456971182 0.8088004783300898
40 53.11384951785671 49.197071082818844 20.969249213080186 2.0121592953765433 0.670719765125515 0.670719765125515 0.0 -0.0 0.8608342640850161 0.5088854191045453
41 57.227798520661466 21.96648759645743 54.714816290112175 2.032381832495045 0.6774606108316823 0.6774606108316823 0.0 0.0 0.5813114541301716 0.8136811373609846
42 54.782142822628295 11.436570689098296 31.78797396158735 2.0528076094904497 0.6842692031634833 0.6842692031634833 0.0 0.0 0.6858728758951139 0.7277213739552836
43 57.12529961275296 6.658727263398962 28.89566431146543 2.0734386689574835 0.6911462229858287 0.6911462229858287 0.0 -0.0 0.8971229945165649 0.4417808650333688
44 34.31175508716643 28.547938332669474 35.29218735137729 2.0942770740192755 0.6980923580064258 0.6980923580064258 0.0 -0.0 0.7662793896249596 0.6425075073771507
45 34.801462411042095 12.8047906037711 16.1619082764352 2.115324908533706 0.7051083028445677 0.7051083028445677 0.0 -0.0 0.8021859139948743 0.5970743332184094
46 8.766623169885358 49.304210568225784 16.996423805585533 2.1365842773017816 0.7121947591005942 0.7121947591005942 0.0 0.0 0.6689296931602822 0.7433256793683982
47 46.22119041236482 10.668013225860799 25.797380425132218 2.158057306278062 0.7193524354260208 0.7193524354260208 0.0 -0.0 0.8121614142020023 0.5834328044268712
48 41.37518016008265 16.875755181421546 26.97879304910142 2.1797461427833738 0.7265820475944589 0.7265820475944589 0.0 0.0 0.43861391052531945 0.8986756019241242
49 19.83998846159715 32.34654361731414 1.4936179404671883 2.2016529557194082 0.7338843185731354 0.7338843185731354 0.0 -0.0 0.7611420715427216 0.6485851886434459
50 28.91303696597795 41.45667990211445 52.22907098187416 2.2237799357857453 0.7412599785952504 0.7412599785952504 0.0 0.0 0.5689873473401131 0.8223462765568174
51 57.60795979027953 32.24448922730606 42.09981546463291 2.2461292956988115 0.7487097652329348 0.7487097652329348 0.0 -0.0 0.9816329176571261 0.1907794930592849
52 22.275133627252966 60.56882895130344 36.72337766955733 2.268703270413224 0.7562344234710795 0.7562344234710795 0.0 -0.0 0.8312938914163103 0.5558331279205367
53 26.356755744117358 31.1123873637903 2.243830593759227 2.291504117345282 0.7638347057817576 0.7638347057817576 0.0 0.0 0.4937832216878833 0.8695850332081013
54 23.1800111378199 37.17339604996825 30.162672031121087 2.3145341165986597 0.7715113721995503 0.7715113721995503 0.0 -0.0 0.7425013715714329 0.6698445440656666
55 20.105347443385853 55.67865887192742 5.206641785785976 2.3145341165986597 0.7715113721995503 0.7715113721995503 0.0 -0.0 0.899222239431846 0.4374921303419936
56 41.25714700974653 21.843651915464786 42.747359983255045 2.3377955711924763 0.779265190397497 0.779265190397497 0.0 0.0 0.591041689671776 0.8066410112744902
57 49.05313760556668 8.751128935856247 43.80964230276492 2.3377955711924763 0.779265190397497 0.779265190397497 0.0 0.0 0.6906372933410847 0.7232013060320761
58 38.12482119995674 46.19417595127297 21.994523470348312 2.3612908072915975 0.7870969357638622 0.7870969357638622 0.0 -0.0 0.9778925487455288 0.20910801779935065
59 31.387677749291036 45.60608096065607 45.9336063730377 2.3612908072915975 0.7870969357638622 0.7870969357638622 0.0 -0.0 0.8334397726994561 0.5526103014626843
60 30.716452456036578 28.39624704340338 18.306668238537238 2.3850221744391824 0.7950073914797274 0.7950073914797274 0.0 -0.0 0.8251393648538317 0.5649292243888745
61 20.303973626783524 26.06069731044709 41.09104941702979 2.3850221744391824 0.7950073914797274 0.7950073914797274 0.0 -0.0 0.8342848482439009 0.5513336485202505
62 0.7046536722276789 52.417436695462875 24.826411876208176 2.4089920457917313 0.8029973485972461 0.8029973485972461 0.0 0.0 0.6993489688984815 0.7147803996337831
63 33.55778348755482 43.97145988948895 8.953787506018983 2.4089920457917313 0.8029973485972461 0.8029973485972461 0.0 0.0 0.6638694557235675 0.747848477806363
64 24.292930728993245 57.773699876134145 0.4782193028606567 2.4332028183563863 0.8110676061187918 0.8110676061187918 0.0 0.0 0.5469534661185369 0.8371630103515794
65 11.590853065855448 1.7724393798522844 20.320605886861742 2.4332028183563863 0.8110676061187918 0.8110676061187918 0.0 0.0 0.534266604389083 0.8453160328744268
66 49.92234656775659 27.23139743167032 19.772675725352375 2.4576569132305393 0.8192189710768459 0.8192189710768459 0.0 0.0 0.49259387534365895 0.8702593142126752
67 60.540982965167416 56.7001562478479 10.680368276931715 2.4576569132305393 0.8192189710768459 0.8192189710768459 0.0 -0.0 0.7991221049958454 0.6011687461162707
68 23.69465585997866 2.931191530509603 54.18262020793637 2.4823567758440546 0.8274522586146824 0.8274522586146824 0.0 -0.0 0.8113628171424923 0.5845428803420658
69 45.39939809858311 55.75686678386813 3.7258947901261914 2.4823567758440546 0.8274522586146824 0.8274522586146824 0.0 0.0 0.69974083585519 0.7143967823532522
70 25.487569016335208 60.18394209164908 24.197170135260347 2.507304876203804 0.8357682920679339 0.8357682920679339 0.0 -0.0 0.9226100212719841 0.3857340387475665
71 47.36531844981968 2.7366943832627766 43.98201434773238 2.507304876203804 0.8357682920679339 0.8357682920679339 0.0 -0.0 0.8908476943010929 0.4543020862360491
72 56.312284046045896 57.771846509370846 8.63261886658556 2.5325037091406095 0.8441679030468655 0.8441679030468655 0.0 -0.0 0.9180976465577227 0.39635427509384946
73 7.326547608010508 52.57190273144503 47.51897623802509 2.5325037091406095 0.8441679030468655 0.8441679030468655 0.0 0.0 0.6852526383261238 0.7283054453092375
74 16.087276556346175 17.4336027674173 7.062925570891384 2.55795579455874 0.8526519315195833 0.8526519315195833 0.0 0.0 0.6622208999947843 0.7493086677799063
75 49.064727056399 14.508402089433837 18.74395450299779 2.55795579455874 0.8526519315195833 0.8526519315195833 0.0 0.0 0.6669694181073614 0.7450850926636016
76 55.90072345389389 32.82015746304436 9.605325941692437 2.5836636776879733 0.8612212258959899 0.8612212258959899 0.0 0.0 0.4849872773235938 0.8745212066235144
77 4.21567165178458 8.08068736001593 10.475785844138255 2.5836636776879733 0.8612212258959899 0.8612212258959899 0.0 -0.0 0.724549744492829 0.6892225096116464
78 0.20899230825818216 13.232588856491775 1.4667640021145658 2.60962992933803 0.8698766431126767 0.8698766431126767 0.0 0.0 0.646327957303847 0.7630597431442944
79 59.802100246941926 10.025926980704392 21.120616310488483 2.60962992933803 0.8698766431126767 0.8698766431126767 0.0 0.0 0.4210348644808628 0.9070444547493698
80 2.768547087627394 59.31609534508074 21.562304601646623 2.6358571461557214 0.8786190487185761 0.8786190487185761 0.0 0.0 0.5786941501693628 0.8155446527074768
81 8.303589925181232 22.39102739175808 49.37631709120569 2.6358571461557214 0.8786190487185761 0.8786190487185761 0.0 0.0 0.683142879342022 0.730284743373632
82 7.396767657742079 56.99922263031312 54.77364936812858 2.6623479508845853 0.8874493169615257 0.8874493169615257 0.0 0.0 0.3480344086077516 0.937481760049257
83 18.073335955987194 10.8105741481264 57.9610842495753 2.6623479508845853 0.8874493169615257 0.8874493169615257 0.0 -0.0 0.8280938516825816 0.560589486884571
84 18.749314678382046 27.605061860481438 37.70487449989637 2.6891049926271773 0.8963683308757265 0.8963683308757265 0.0 -0.0 0.8521868438699086 0.5232375972109076
85 5.7295904586016215 36.92876443504246 17.709129176655665 2.6891049926271773 0.8963683308757265 0.8963683308757265 0.0 0.0 0.2683204071818837 0.9633297250109892
86 15.544608348427298 15.689869457024038 60.157948963854 2.716130947109939 0.9053769823699841 0.9053769823699841 0.0 0.0 0.5717525694490604 0.8204261083902665
87 10.865418521609866 59.819890453201126 42.041647228302786 2.716130947109939 0.9053769823699841 0.9053769823699841 0.0 -0.0 0.7407334016199733 0.6717990977401677
88 21.17152133382398 21.88281747282401 1.0204533545456769 2.7434285169508743 0.9144761723169557 0.9144761723169557 0.0 0.0 0.6524446383875427 0.7578363898885753
89 14.383009583704386 22.67535217625989 19.121249149969266 2.7434285169508743 0.9144761723169557 0.9144761723169557 0.0 0.0 0.3815125934194192 0.9243636411404275
90 34.61518795515184 56.43326699948667 43.640115617437694 2.771000431929695 0.9236668106432364 0.9236668106432364 0.0 -0.0 0.7664413141092511 0.642314340511314
91 19.663545146915855 12.62378843921166 38.34974850051151 2.771000431929695 0.9236668106432364 0.9236668106432364 0.0 -0.0 0.7164030651197486 0.6976866404676452
92 11.570878402583944 44.39360792001641 37.83803249496219 2.798849449260897 0.9329498164202966 0.9329498164202966 0.0 0.0 0.3159382626609752 0.9487797500931208
93 17.925558810065773 58.41428816846323 28.99799244906241 2.798849449260897 0.9329498164202966 0.9329498164202966 0.0 -0.0 0.807675111463051 0.5896277760783901
94 37.89158360487626 14.864973500235592 54.76117038677094 2.8269783538694084 0.9423261179564643 0.9423261179564643 0.0 0.0 0.5856043209472178 0.8105970511221638
95 36.93268185339767 15.609206537417393 57.47001942048447 2.8269783538694084 0.9423261179564643 0.9423261179564643 0.0 -0.0 0.8283891439806925 0.5601530381377355
96 31.85694956398629 23.7450580533056 43.86415184282161 2.8553899586691065 0.9517966528897013 0.9517966528897013 0.0 0.0 0.6380161188650698 0.7700230074928626
97 19.94354666054125 53.83032937455856 14.074867268597526 2.8553899586691065 0.9517966528897013 0.9517966528897013 0.0 0.0 0.5652655734899162 0.8249089837231233
98 21.976145243313493 14.639609369712078 31.70877930980526 2.8840871048441854 0.9613623682813993 0.9613623682813993 0.0 -0.0 0.9884337224668884 0.15165347437579585
99 52.34967719987045 32.32657884861221 7.565253833977161 2.8840871048441854 0.9613623682813993 0.9613623682813993 0.0 0.0 0.644584962479319 0.7645326848117973
100 43.58702713267347 29.79129934606774 51.95306634455708 2.9130726621331786 0.9710242207110555 0.9710242207110555 0.0 -0.0 0.7665764345255346 0.6421530736748979
101 36.184508176523536 38.064509615605125 4.819760587567386 2.9130726621331786 0.9710242207110555 0.9710242207110555 0.0 -0.0 0.7486465484609144 0.6629693397718779
102 39.81959536795323 47.742605604417086 17.557105146825876 2.94234952911594 0.9807831763719823 0.9807831763719823 0.0 -0.0 0.764238184631255 0.644934102952793
103 30.846482118485 28.09805612776208 21.925569805523153 2.94234952911594 0.9807831763719823 0.9807831763719823 0.0 -0.0 0.7262700822056904 0.6874094614514261
104 0.01617246157658242 42.015424805807726 29.26645926007448 2.971920633503583 0.9906402111678592 0.9906402111678592 0.0 0.0 0.6864264585310771 0.7271992278794606
105 12.505179412002805 58.33032555857727 21.35942133700721 2.971920633503583 0.9906402111678592 0.9906402111678592 0.0 -0.0 0.8498704758576332 0.5269916263713497
106 16.662117423276722 7.567724448908814 56.193055312587795 3.001788932431174 1.000596310810392 1.000596310810392 0.0 -0.0 0.793590538753224 0.6084521811953406
107 45.613648443423514 0.7984832530143205 20.789831633462473 3.001788932431174 1.000596310810392 1.000596310810392 0.0 -0.0 0.8299364941277125 0.5578578812878792
108 58.68278564015286 47.211633150162335 21.366100888963032 3.0319574127535143 1.0106524709178384 1.0106524709178384 0.0 -0.0 0.7596155095013813 0.650372414640225
109 35.11182172578526 49.672382676828924 21.227401575086105 3.0319574127535143 1.0106524709178384 1.0106524709178384 0.0 -0.0 0.746179639226726 0.6657446552571586
110 30.881010248686103 52.88777980627315 43.04198105003315 3.0624290913437635 1.0208096971145872 1.0208096971145872 0.0 -0.0 0.7434755474029917 0.6687631198068729
111 36.62284183002463 48.536519131297055 19.4846182913216 3.0624290913437635 1.0208096971145872 1.0208096971145872 0.0 -0.0 0.7635489887521677 0.6457499065238353
112 46.23865821596333 51.27742105777785 52.967380912404955 3.0932070153951736 1.0310690051317253 1.0310690051317253 0.0 -0.0 0.925703395166632 0.3782502137170186
113 9.475190704201177 29.252561381404384 36.25925072698376 3.0932070153951736 1.0310690051317253 1.0310690051317253 0.0 -0.0 0.7476030998596368 0.6641457709571461
114 0.20520968040876839 20.1373150020898 34.05867426730333 3.1242942627258143 1.0414314209086053 1.0414314209086053 0.0 -0.0 0.7095009508808979 0.7047044775642494
115 36.41380077709226 14.41832134825816 13.139192992918815 3.1242942627258143 1.0414314209086053 1.0414314209086053 0.0 0.0 0.692332939305712 0.7215782016887105
116 6.7508913466093246 39.38401162929611 42.27960411091186 3.1556939420863164 1.0518979806954427 1.0518979806954427 0.0 0.0 0.4838188577050026 0.8751681626573412
117 45.316680681726666 49.695458353475175 56.03054613963877 3.1556939420863164 1.0518979806954427 1.0518979806954427 0.0 0.0 0.4072390243389004 0.9133216175343166
118 45.26992281240909 7.288330499531241 0.5213900929541948 3.1874091934707773 1.0624697311569273 1.0624697311569273 0.0 -0.0 0.9854258972554679 0.17010526452245991
119 25.600437160852948 30.088711229840637 0.3033718616951126 3.1874091934707773 1.0624697311569273 1.0624697311569273 0.0 0.0 0.693566054094668 0.720393037589587
120 57.81763639010888 48.90367643124349 44.72590626955389 3.21944318843077 1.073147729476925 1.073147729476925 0.0 -0.0 0.8546373086497397 0.5192254526349123
121 6.726136445970859 26.987057861547655 2.9762340814405537 3.21944318843077 1.073147729476925 1.073147729476925 0.0 -0.0 0.738138054050796 0.6746496966293722
122 48.1828917344364 53.25923500508952 46.54052961697586 3.251799130392513 1.0839330434641692 1.0839330434641692 0.0 0.0 0.30497028615780525 0.9523618663936657
123 55.31797213732061 32.197535848478594 54.593454315558574 3.251799130392513 1.0839330434641692 1.0839330434641692 0.0 -0.0 0.8240326158671573 0.5665423620411186
124 28.799987226945806 20.820200395618784 12.863549606481312 3.284480254977111 1.0948267516590298 1.0948267516590298 0.0 -0.0 0.7351480847541838 0.6779065521753388
125 45.76231521663312 2.218983059538507 26.180435514141166 3.284480254977111 1.0948267516590298 1.0948267516590298 0.0 0.0 0.6354145425399089 0.7721711980699606
126 20.034727888261575 19.72411432691002 21.775933356198166 3.3174898303242784 1.1058299434414205 1.1058299434414205 0.0 -0.0 0.9631928649301144 0.2688112812880415
127 60.40718537413953 34.57284247245661 45.921633198494135 3.3174898303242784 1.1058299434414205 1.1058299434414205 0.0 0.0 0.6645731125154195 0.7472232451694524
128 15.99599354748412 49.82279532078991 50.62911316115937 3.3508311574190444 1.1169437191396796 1.1169437191396796 0.0 -0.0 0.837305869343264 0.5467347447925007
129 50.869293510862775 11.257838442157146 48.048229818540776 3.3508311574190444 1.1169437191396796 1.1169437191396796 0.0 0.0 0.6718759690179156 0.7406636768846148
130 27.442082898238688 42.33787323292585 11.119303995033128 3.3845075704219427 1.1281691901406479 1.1281691901406479 0.0 -0.0 0.8172568989423515 0.5762735124323614
131 59.758623807394144 5.325632692045415 43.54199702687457 3.3845075704219427 1.1281691901406479 1.1281691901406479 0.0 0.0 0.5650588956672867 0.8250505708302167
132 34.81344079850179 15.354303337950613 60.643787154683636 3.4185224370023173 1.1395074790007733 1.1395074790007733 0.0 0.0 0.5632303093681869 0.8262999568008076
133 59.828361479756126 48.68656296427239 39.5855529277737 3.4185224370023173 1.1395074790007733 1.1395074790007733 0.0 0.0 0.7047758212396541 0.7094300823872436
134 0.41052025966734357 19.39355677193167 41.14150380318007 3.4528791586751835 1.1509597195583892 1.1509597195583892 0.0 -0.0 0.7457546235329385 0.6662207152882933
135 58.18690049746995 0.39952441108890796 52.16768107410422 3.4528791586751835 1.1509597195583892 1.1509597195583892 0.0 0.0 0.5807371118896761 0.8140911539097067
136 14.459683239434842 38.390742416970824 57.81232797311623 3.4875811711413056 1.1625270570470996 1.1625270570470996 0.0 -0.0 0.7765636880913803 0.6300387593933514
137 25.591393558859778 30.545582956728772 17.001856748383652 3.4875811711413056 1.1625270570470996 1.1625270570470996 0.0 -0.0 0.9207785641385271 0.39008567754147583
138 45.40250792223769 36.87566671379978 2.8455756100162546 3.5226319446308447 1.1742106482102876 1.1742106482102876 0.0 0.0 0.5933031767685688 0.8049790931672228
139 57.06453749342688 5.445104874406031 7.2857594480880845 3.5226319446308447 1.1742106482102876 1.1742106482102876 0.0 0.0 0.36293328461656904 0.9318151270061183
140 23.152806993107504 26.809694654812738 10.01588536436656 3.5580349842504484 1.1860116614168097 1.1860116614168097 0.0 0.0 0.5657838974393875 0.8245535649054563
141 9.759715251345218 47.827028576522494 57.82272316670045 3.5580349842504484 1.1860116614168097 1.1860116614168097 0.0 0.0 0.5898626798291705 0.8075035720941112
142 21.204393025721277 32.442633140607896 15.234731977577015 3.5937938303334693 1.197931276777825 1.197931276777825 0.0 0.0 0.494526605223718 0.8691624915548904
143 46.80827327852888 14.839022443620916 58.58726309938856 3.5937938303334693 1.197931276777825 1.197931276777825 0.0 0.0 0.6621201748514545 0.7493976741721844
144 13.548071418739285 27.206600943156324 39.02372633552467 3.62991205879435 1.2099706862647877 1.2099706862647877 0.0 -0.0 0.8358120424685423 0.5490156916378287
145 53.56586928593089 33.49290457401926 19.732144399273842 3.62991205879435 1.2099706862647877 1.2099706862647877 0.0 -0.0 0.7380766977143534 0.6747168208152773
146 33.79022891102541 56.25335088022797 49.46124881133313 3.666393281486094 1.2221310938286984 1.2221310938286984 0.0 0.0 0.5600689403365469 0.8284460043179022
147 35.05258977788952 38.538518404935175 43.95035042401108 3.666393281486094 1.2221310938286984 1.2221310938286984 0.0 -0.0 0.8053653384335279 0.5927787712543771
148 58.7332431778144 40.015433881710095 56.682812694317114 3.7032411465612998 1.2344137155204251 1.2344137155204251 0.0 -0.0 0.9475491048281723 0.31961022189430877
149 8.721704608659628 50.11158980609941 31.377381575947993 3.7032411465612998 1.2344137155204251 1.2344137155204251 0.0 -0.0 0.8855269061838191 0.46458809543994295
150 45.87875191036776 1.5933449627639995 6.2001038956886525 3.7404593388372076 1.2468197796124045 1.2468197796124045 0.0 -0.0 0.8997163709941051 0.43647502994466686
151 22.639228374694586 60.172772117308696 57.625842838495046 3.7404593388372076 1.2468197796124045 1.2468197796124045 0.0 0.0 0.6949034215940625 0.7191030765174521
152 37.931732801552414 51.251586215919986 8.84991729963276 3.7780515801640364 1.259350526721347 1.259350526721347 0.0 0.0 0.6496096252583186 0.7602679361723385
153 21.39509175886319 16.32689382753038 9.658607240913796 3.7780515801640364 1.259350526721347 1.259350526721347 0.0 0.0 0.6980264017745981 0.7160720232110785
154 40.98311306405122 8.11522259646997 1.251854844248891 3.816021629797295 1.2720072099324329 1.2720072099324329 0.0 -0.0 0.9126309719920443 0.4087844284716046
155 18.86696028409108 40.373665174515885 8.572690405365243 3.816021629797295 1.2720072099324329 1.2720072099324329 0.0 0.0 0.34897032679986184 0.9371337743423815
156 10.414723892176191 50.75280852517236 50.56563847567085 3.8543732847735503 1.284791094924524 1.284791094924524 0.0 0.0 0.6995675014656925 0.7145665195718649
157 25.99110931184059 52.90004081817161 43.79086604487151 3.8543732847735503 1.284791094924524 1.284791094924524 0.0 0.0 0.63565327495599 0.7719746848425306
158 47.27744726848014 38.02353198244976 32.213930298237976 3.89311038029028 1.2977034600967607 1.2977034600967607 0.0 -0.0 0.7426985308561326 0.6696259345814963
159 2.935131089560212 52.92849568046331 18.200658015878062 3.89311038029028 1.2977034600967607 1.2977034600967607 0.0 0.0 0.4891044501540252 0.8722252213961303
160 42.754062919980726 55.37511990024022 16.18633714694029 3.9322367900893314 1.310745596696437 1.310745596696437 0.0 0.0 0.6466947184788655 0.7627489371290798
161 30.312670946081354 18.217315634649978 39.759990067842956 3.9322367900893314 1.310745596696437 1.310745596696437 0.0 0.0 0.6377575578887067 0.7702371695496348
162 57.398729989506975 1.737772810389945 31.117459001149257 3.9717564268442076 1.3239188089480767 1.3239188089480767 0.0 0.0 0.6701572236966805 0.7422191694689361
163 39.05961435981972 30.541068964772585 30.750589070709665 3.9717564268442076 1.3239188089480767 1.3239188089480767 0.0 -0.0 0.7797338016261434 0.6261111711203069
164 7.505989008919407 34.93176259620051 31.620832967657485 4.011673242551615 1.3372244141838714 1.3372244141838714 0.0 0.0 0.6966086930688543 0.7174512727293072
165 25.25295543000468 28.08045166421306 50.039571569749874 4.011673242551615 1.3372244141838714 1.3372244141838714 0.0 -0.0 0.8994069955971553 0.43711217813153935
1_B 39.837379683688326 60.91091385893669 16.419733350071308 1.3623462835200861 0.45411542784002823 0.45411542784002823 0.0 -0.0 0.7863642711635499 0.6177630881150306
9_B 49.05590471578165 61.39482146891566 58.49064071290629 1.4758121106323514 0.4919373702107852 0.4919373702107852 0.0 -0.0 0.7176002965020949 0.6964551776389529
11_B 24.434395081788256 60.919117560562796 2.829059427090545 1.505625492894841 0.5018751642982815 0.5018751642982815 0.0 0.0 0.49983922045674145 0.866118209999765
26_Ba 55.435143724466165 22.910527999505085 61.41779517330723 1.7492872543698708 0.5830957514566238 0.5830957514566238 0.0 0.0 0.5361151400853296 0.8441448670526212
28_L -0.1445736161564497 4.075814857347963 34.94337551090768 1.7846252009998653 0.5948750669999529 0.5948750669999529 0.0 -0.0 0.9828164757017253 0.18458541407500267
37_F 2.8734571499008443 47.46493670875432 -0.3194956754781444 1.9526910009862974 0.6508970003287624 0.6508970003287624 0.0 0.0 0.5163603530767541 0.8563714064414165
52_T 22.275133627252966 -0.3311710486965609 36.72337766955733 2.268703270413224 0.7562344234710795 0.7562344234710795 0.0 -0.0 0.8312938914163103 0.5558331279205367
62_R 61.60465367222768 52.417436695462875 24.826411876208176 2.4089920457917313 0.8029973485972461 0.8029973485972461 0.0 0.0 0.6993489688984815 0.7147803996337831
64_Ba 24.292930728993245 57.773699876134145 61.37821930286066 2.4332028183563863 0.8110676061187918 0.8110676061187918 0.0 0.0 0.5469534661185369 0.8371630103515794
65_B 11.590853065855448 62.672439379852285 20.320605886861742 2.4332028183563863 0.8110676061187918 0.8110676061187918 0.0 0.0 0.534266604389083 0.8453160328744268
67_L -0.35901703483258274 56.7001562478479 10.680368276931715 2.4576569132305393 0.8192189710768459 0.8192189710768459 0.0 -0.0 0.7991221049958454 0.6011687461162707
70_T 25.487569016335208 -0.7160579083509191 24.197170135260347 2.507304876203804 0.8357682920679339 0.8357682920679339 0.0 -0.0 0.9226100212719841 0.3857340387475665
78_R 61.10899230825818 13.232588856491775 1.4667640021145658 2.60962992933803 0.8698766431126767 0.8698766431126767 0.0 0.0 0.646327957303847 0.7630597431442944
79_L -1.0978997530580727 10.025926980704392 21.120616310488483 2.60962992933803 0.8698766431126767 0.8698766431126767 0.0 0.0 0.4210348644808628 0.9070444547493698
80_T 2.768547087627394 -1.5839046549192588 21.562304601646623 2.6358571461557214 0.8786190487185761 0.8786190487185761 0.0 0.0 0.5786941501693628 0.8155446527074768
86_F 15.544608348427298 15.689869457024038 -0.7420510361460018 2.716130947109939 0.9053769823699841 0.9053769823699841 0.0 0.0 0.5717525694490604 0.8204261083902665
87_T 10.865418521609866 -1.080109546798873 42.041647228302786 2.716130947109939 0.9053769823699841 0.9053769823699841 0.0 -0.0 0.7407334016199733 0.6717990977401677
93_T 17.925558810065773 -2.4857118315367686 28.99799244906241 2.798849449260897 0.9329498164202966 0.9329498164202966 0.0 -0.0 0.807675111463051 0.5896277760783901
104_R 60.91617246157658 42.015424805807726 29.26645926007448 2.971920633503583 0.9906402111678592 0.9906402111678592 0.0 0.0 0.6864264585310771 0.7271992278794606