ITEM: TIMESTEP
762
ITEM: NUMBER OF ATOMS
276
ITEM: BOX BOUNDS ff ff ff
0 60.9
60.9 0
60.9 0
ITEM: ATOMS id x y z AsphericalShapeX AsphericalShapeY AsphericalShapeZ OrientationX OrientationY OrientationZ OrientationW
1 44.68125234493822 48.27025674058645 21.413524802431954 5.385856032776368 1.7952853442587944 1.7952853442587944 0.0 -0.0 0.7863642711635499 0.6177630881150306
2 3.888887597935576 17.235805268144336 22.614546645675695 5.439984785797017 1.8133282619322983 1.8133282619322983 0.0 -0.0 0.8896314041555925 0.4566792799549252
3 17.823011903649586 9.879309226628298 55.50785185219679 5.494657541829479 1.8315525139432147 1.8315525139432147 0.0 0.0 0.631512325711268 0.7753658378305981
4 17.5474174565998 47.638176920432855 43.58192566463197 5.549879768195191 1.8499599227317773 1.8499599227317773 0.0 0.0 0.5765741652112841 0.8170448164029381
5 35.03707924436446 34.53139109824543 21.29334805446972 5.605656987162683 1.8685523290542425 1.8685523290542425 0.0 -0.0 0.8873914294477543 0.4610167577677315
6 20.744774062662547 6.088292021649609 27.816164527435852 5.661994776500207 1.8873315921667417 1.8873315921667417 0.0 0.0 0.643710445538684 0.7652691437033046
7 19.08592279587856 53.06310086266919 39.295514821505755 5.7188987700336815 1.9062995900112065 1.9062995900112065 0.0 -0.0 0.7603958793842515 0.6494598575858641
8 40.13916293871027 31.657047570142602 14.266754180265721 5.776374658209903 1.9254582194033552 1.9254582194033552 0.0 -0.0 0.7854601334426244 0.6189122545016335
9 49.558507241760374 5.82326434818506 51.52384024635315 5.834428188665752 1.944809396221919 1.944809396221919 0.0 -0.0 0.7176002965020949 0.6964551776389529
10 48.826459559510596 6.188171539067742 13.728207731581879 5.893065166802441 1.964355055600818 1.964355055600818 0.0 0.0 0.38534345666417513 0.9227732226317065
11 18.64418874405085 34.95696382914054 60.76329920790251 5.952291456366653 1.9840971521222397 1.9840971521222397 0.0 0.0 0.49983922045674145 0.866118209999765
12 10.068242268541304 13.88401571449216 24.776918880507793 6.0121129800367 2.0040376600122887 2.0040376600122887 0.0 0.0 0.2746680171135514 0.9615391205639581
13 8.40994053117417 51.058815956409326 13.625056449469087 6.072535720015039 2.0241785733383493 2.0241785733383493 0.0 -0.0 0.7886508549344257 0.614841303924191
14 10.096592807735185 36.39158490671826 21.104057038758565 6.133565718625698 2.0445219062085664 2.0445219062085664 0.0 -0.0 0.7750680292508737 0.6318777967559605
15 28.3514766750518 46.96165485915605 19.897643435187508 6.195209078919616 2.0650696929732644 2.0650696929732644 0.0 0.0 0.6340811782098568 0.7732664866913604
16 18.60142627530351 29.97824936836521 49.491229109444916 6.257471965284295 2.085823988428067 2.085823988428067 0.0 -0.0 0.7629176367612683 0.6464956918020424
17 18.80042968883822 10.77901517304468 33.88984837723006 6.320360604059844 2.1067868680199213 2.1067868680199213 0.0 0.0 0.6579222258448839 0.7530858813836
18 36.53874373226683 28.479792620868896 17.507120726857092 6.383881284162725 2.1279604280542586 2.1279604280542586 0.0 0.0 0.506211649243881 0.8624092799650234
19 14.193246735423454 8.042609909976413 32.794143381988206 6.448040357714081 2.1493467859047093 2.1493467859047093 0.0 0.0 0.6434542777811493 0.7654845474633303
20 29.020486473419037 46.03859051469832 35.45599010309788 6.512844240674541 2.170948080224895 2.170948080224895 0.0 -0.0 0.7861857262579329 0.6179902942832407
21 45.92385020604966 16.62914660099317 47.19273400885851 6.578299413486445 2.192766471162164 2.192766471162164 0.0 0.0 0.6069811502172251 0.7947162281474907
22 13.69187168247712 8.006563249341815 28.17622429716469 6.644412421721693 2.2148041405738916 2.2148041405738916 0.0 -0.0 0.8910647246123514 0.45387625687131333
23 44.94048269944785 6.291857422765928 48.48518424938908 6.711189876736084 2.237063292245413 2.237063292245413 0.0 -0.0 0.7582829367961579 0.651925599868416
24 22.45839629809362 15.789994586451945 44.24218598855606 6.778638456330845 2.2595461521103206 2.2595461521103206 0.0 0.0 0.5255054740936084 0.8507902189715464
25 13.457619134427878 5.214429816746728 54.013386186828576 6.846764905420358 2.2822549684734335 2.2822549684734335 0.0 0.0 0.6637035342538496 0.7479957343587923
26 4.027439590927021 56.93864930751864 31.32724876627644 6.915576036705788 2.3051920122352327 2.3051920122352327 0.0 0.0 0.5361151400853296 0.8441448670526212
27 2.992092506219399 34.803875222164336 30.627096150385697 6.985078731357953 2.3283595771192815 2.3283595771192815 0.0 -0.0 0.7297620279401082 0.6837012378054764
28 12.11712259977274 32.10459086382931 29.266222468309945 7.055279939704183 2.351759979901342 2.351759979901342 0.0 -0.0 0.9828164757017253 0.18458541407500267
29 46.39730146954233 24.936300499818547 27.535772492994248 7.1261866819238096 2.3753955606412855 2.3753955606412855 0.0 -0.0 0.8740853421614372 0.4857723897243679
30 20.36222316619808 57.78517777066081 23.97963904868388 7.197806048750107 2.3992686829167176 2.3992686829167176 0.0 -0.0 0.8433777540022546 0.5373210995802349
31 56.96130059335746 39.903994807826756 31.40008719885947 7.270145202179342 2.4233817340598467 2.4233817340598467 0.0 0.0 0.6952778540174372 0.7187410560924617
32 53.73483966609054 33.142689621533194 33.909945152083075 7.343211376187527 2.4477371253958564 2.4477371253958564 0.0 0.0 0.6353234605105568 0.7722461398575527
33 28.079038847159698 19.887822105663712 21.6079864713677 7.4170118774526 2.4723372924841445 2.4723372924841445 0.0 0.0 0.6411270229476993 0.7674347792784871
34 20.04951478154038 16.394458069994172 23.365932803923176 7.491554086086087 2.4971846953620966 2.4971846953620966 0.0 -0.0 0.7453722743584635 0.6666484625480594
35 23.79150068290791 37.0286909485109 38.013531161385735 7.566845456371315 2.522281818790495 2.522281818790495 0.0 -0.0 0.7109313362059317 0.7032614273514853
36 38.17339507625324 2.8110789748885088 58.83398352488598 7.6428935175079245 2.547631172502709 2.547631172502709 0.0 -0.0 0.739632735620696 0.6730107104632479
37 25.35185986335692 50.59161630093954 27.070823698542668 7.719705874365587 2.5732352914552106 2.5732352914552106 0.0 0.0 0.5163603530767541 0.8563714064414165
38 16.53775796414331 8.566829626963147 17.17922058475572 7.797290208243559 2.599096736081128 2.599096736081128 0.0 0.0 0.5145463711011363 0.8574625542766586
39 10.684350104529805 41.269637113811115 26.91800497727425 7.875654277640057 2.6252180925466857 2.6252180925466857 0.0 0.0 0.5880831456971182 0.8088004783300898
40 56.0626884844023 12.710071128567781 12.603253378573621 7.954805919027592 2.6516019730091975 2.6516019730091975 0.0 -0.0 0.8608342640850161 0.5088854191045453
41 8.060045006951393 17.314872206561088 31.512466579197913 8.034753047635851 2.678251015878628 2.678251015878628 0.0 0.0 0.5813114541301716 0.8136811373609846
42 14.040843052093976 54.61980637157629 40.293579482099446 8.115503658244467 2.7051678860815427 2.7051678860815427 0.0 0.0 0.6858728758951139 0.7277213739552836
43 59.97294707438838 41.17427099604389 40.059010649853874 8.197065825982234 2.7323552753273646 2.7323552753273646 0.0 -0.0 0.8971229945165649 0.4417808650333688
44 43.61946200838216 17.768983290173853 22.271464132485143 8.279447707133166 2.7598159023776985 2.7598159023776985 0.0 -0.0 0.7662793896249596 0.6425075073771507
45 50.949494587562484 57.345703424402885 39.4742906576575 8.362657539954618 2.7875525133181562 2.7875525133181562 0.0 -0.0 0.8021859139948743 0.5970743332184094
46 17.90332131992825 56.226319976315246 13.006169378064056 8.446703645498618 2.81556788183292 2.81556788183292 0.0 0.0 0.6689296931602822 0.7433256793683982
47 50.48825360506615 33.334702679185504 15.370465912684072 8.531594428446471 2.843864809482143 2.843864809482143 0.0 -0.0 0.8121614142020023 0.5834328044268712
48 0.3041529505335794 47.39015740398455 14.476749160380798 8.617338377946727 2.8724461259822434 2.8724461259822434 0.0 0.0 0.43861391052531945 0.8986756019241242
49 25.484231802060844 0.16580995774009477 8.89402659699278 8.703944068465896 2.9013146894885944 2.9013146894885944 0.0 -0.0 0.7611420715427216 0.6485851886434459
50 26.22127206018169 22.562054267866845 60.25423456776847 8.791420160645213 2.930473386881706 2.930473386881706 0.0 0.0 0.5689873473401131 0.8223462765568174
51 47.752687518519785 24.638306830284865 40.60093640847797 8.879775402166826 2.959925134055642 2.959925134055642 0.0 -0.0 0.9816329176571261 0.1907794930592849
52 36.48124820307066 13.454639456496896 19.369779204025214 8.969018628628628 2.989672876209506 2.989672876209506 0.0 -0.0 0.8312938914163103 0.5558331279205367
53 7.1156502240192685 53.099613290640306 1.5444997669799254 9.05915876442718 3.0197195881424412 3.0197195881424412 0.0 0.0 0.4937832216878833 0.8695850332081013
54 40.09735811257465 50.45049087369861 41.22799093557525 9.150204823651695 3.050068274550534 3.050068274550534 0.0 -0.0 0.7425013715714329 0.6698445440656666
55 21.985948102250365 39.05383966078736 17.006505076389598 9.150204823651695 3.050068274550534 3.050068274550534 0.0 -0.0 0.899222239431846 0.4374921303419936
56 41.89809856035933 3.2912102605295805 16.635886489642484 9.242165910983722 3.0807219703279354 3.0807219703279354 0.0 0.0 0.591041689671776 0.8066410112744902
57 50.9796880306244 60.60239487761304 54.0528509312602 9.242165910983722 3.0807219703279354 3.0807219703279354 0.0 0.0 0.6906372933410847 0.7232013060320761
58 25.93834016350309 39.724760496933825 30.898846459834107 9.335051222608767 3.111683740869553 3.111683740869553 0.0 -0.0 0.9778925487455288 0.20910801779935065
59 33.86299096443222 0.600267863644416 23.444382388103 9.335051222608767 3.111683740869553 3.111683740869553 0.0 -0.0 0.8334397726994561 0.5526103014626843
60 51.171423067165414 20.452270484452153 53.575353125308474 9.428870047135407 3.1429566823784043 3.1429566823784043 0.0 -0.0 0.8251393648538317 0.5649292243888745
61 3.7624343709966537 12.10420699271989 42.212491521742244 9.428870047135407 3.1429566823784043 3.1429566823784043 0.0 -0.0 0.8342848482439009 0.5513336485202505
62 18.71626043374954 7.335023832010447 38.98960505282034 9.523631766523849 3.1745439221745895 3.1745439221745895 0.0 0.0 0.6993489688984815 0.7147803996337831
63 32.52384641931836 10.308344180044113 47.77649013234739 9.523631766523849 3.1745439221745895 3.1745439221745895 0.0 0.0 0.6638694557235675 0.747848477806363
64 44.63965420476183 29.71317375510023 46.10963240268482 9.619345857025495 3.206448619008528 3.206448619008528 0.0 0.0 0.5469534661185369 0.8371630103515794
65 7.38705005969188 26.92299955275591 6.298769890254387 9.619345857025495 3.206448619008528 3.206448619008528 0.0 0.0 0.534266604389083 0.8453160328744268
66 22.99320434074348 56.42357926359788 32.47103034969184 9.71602189012895 3.2386739633763426 3.2386739633763426 0.0 0.0 0.49259387534365895 0.8702593142126752
67 53.39360636834774 16.87383893900817 7.391048299869343 9.71602189012895 3.2386739633763426 3.2386739633763426 0.0 -0.0 0.7991221049958454 0.6011687461162707
68 35.744312102551945 23.347590253196664 25.4082141776308 9.813669533518306 3.271223177839446 3.271223177839446 0.0 -0.0 0.8113628171424923 0.5845428803420658
69 34.010644791261086 10.579811159381645 54.18653180124507 9.813669533518306 3.271223177839446 3.271223177839446 0.0 0.0 0.69974083585519 0.7143967823532522
70 7.993301987944255 60.762214599278096 15.57069579677761 9.912298552038818 3.3040995173463403 3.3040995173463403 0.0 -0.0 0.9226100212719841 0.3857340387475665
71 14.34938760539406 60.76613061319004 24.17279186425296 9.912298552038818 3.3040995173463403 3.3040995173463403 0.0 -0.0 0.8908476943010929 0.4543020862360491
72 10.428595766921703 44.36270882893417 9.905052510635725 10.011918808675084 3.337306269558375 3.337306269558375 0.0 -0.0 0.9180976465577227 0.39635427509384946
73 37.29590590598975 36.777448936996656 30.168714170291835 10.011918808675084 3.337306269558375 3.337306269558375 0.0 0.0 0.6852526383261238 0.7283054453092375
74 44.70508375132702 20.25783241271469 16.39643725252257 10.112540265535403 3.370846755178471 3.370846755178471 0.0 0.0 0.6622208999947843 0.7493086677799063
75 50.34369719082412 40.054994209422055 45.600438021790104 10.112540265535403 3.370846755178471 3.370846755178471 0.0 0.0 0.6669694181073614 0.7450850926636016
76 3.6078449041966203 10.663498525352516 29.827197725435887 10.214172984849272 3.40472432828317 3.40472432828317 0.0 0.0 0.4849872773235938 0.8745212066235144
77 12.560310945167657 51.26351092047391 17.47965658837409 10.214172984849272 3.40472432828317 3.40472432828317 0.0 -0.0 0.724549744492829 0.6892225096116464
78 5.162686176833102 13.918843670649034 15.887554656402774 10.316827129973815 3.4389423766578875 3.4389423766578875 0.0 0.0 0.646327957303847 0.7630597431442944
79 60.2157679291047 27.078867625522935 27.080778021218915 10.316827129973815 3.4389423766578875 3.4389423766578875 0.0 0.0 0.4210348644808628 0.9070444547493698
80 3.0129379382947894 60.16635515056605 24.586443370331907 10.420512966408419 3.4735043221361575 3.4735043221361575 0.0 0.0 0.5786941501693628 0.8155446527074768
81 57.77611134161785 52.661693910543384 25.962891485280366 10.420512966408419 3.4735043221361575 3.4735043221361575 0.0 0.0 0.683142879342022 0.730284743373632
82 11.518304691299935 56.286412028481266 6.004880860165243 10.525240862823487 3.5084136209411443 3.5084136209411443 0.0 0.0 0.3480344086077516 0.937481760049257
83 13.669792383526529 39.81187173106072 4.192556692845631 10.525240862823487 3.5084136209411443 3.5084136209411443 0.0 -0.0 0.8280938516825816 0.560589486884571
84 37.06905386400489 14.752606518174655 3.0152415395240633 10.631021292096019 3.5436737640320213 3.5436737640320213 0.0 -0.0 0.8521868438699086 0.5232375972109076
85 17.28586313273183 47.12268251780766 25.176334250934865 10.631021292096019 3.5436737640320213 3.5436737640320213 0.0 0.0 0.2683204071818837 0.9633297250109892
86 6.07328372130417 55.83087300491186 55.557824433046726 10.737864832356836 3.57928827745225 3.57928827745225 0.0 0.0 0.5717525694490604 0.8204261083902665
87 8.007866435231907 60.71782440526217 43.03998058220547 10.737864832356836 3.57928827745225 3.57928827745225 0.0 -0.0 0.7407334016199733 0.6717990977401677
88 34.84205409824612 43.870394060299134 54.5256821175404 10.845782168049276 3.615260722683078 3.615260722683078 0.0 0.0 0.6524446383875427 0.7578363898885753
89 38.68629785854126 15.759860343692033 43.630869225907006 10.845782168049276 3.615260722683078 3.615260722683078 0.0 0.0 0.3815125934194192 0.9243636411404275
90 19.345198122811496 14.987703686885212 49.70860927312752 10.954784090996867 3.651594696998925 3.651594696998925 0.0 -0.0 0.7664413141092511 0.642314340511314
91 27.871070584581123 3.984031182906243 27.483942282271904 10.954784090996867 3.651594696998925 3.651594696998925 0.0 -0.0 0.7164030651197486 0.6976866404676452
92 54.76513155876875 17.107920231252773 36.1584932360655 11.064881501482319 3.6882938338273745 3.6882938338273745 0.0 0.0 0.3159382626609752 0.9487797500931208
93 17.10971233596109 24.336307683909144 31.433703014130096 11.064881501482319 3.6882938338273745 3.6882938338273745 0.0 -0.0 0.807675111463051 0.5896277760783901
94 52.58259194753621 11.565761955821337 44.73644286819379 11.176085409338626 3.725361803112841 3.725361803112841 0.0 0.0 0.5856043209472178 0.8105970511221638
95 41.98051448339501 60.29717691097473 54.18509955972045 11.176085409338626 3.725361803112841 3.725361803112841 0.0 -0.0 0.8283891439806925 0.5601530381377355
96 45.98792493502878 10.650680615513012 37.552449243003004 11.288406935049483 3.7628023116831772 3.7628023116831772 0.0 0.0 0.6380161188650698 0.7700230074928626
97 27.276120533324253 60.64585551183514 18.486599488402515 11.288406935049483 3.7628023116831772 3.7628023116831772 0.0 0.0 0.5652655734899162 0.8249089837231233
98 17.084365560419386 21.95337644850804 38.61003584812571 11.401857310860622 3.8006191036201677 3.8006191036201677 0.0 -0.0 0.9884337224668884 0.15165347437579585
99 50.64145165218926 35.32788127634332 7.618779347193793 11.401857310860622 3.8006191036201677 3.8006191036201677 0.0 0.0 0.644584962479319 0.7645326848117973
100 27.217891682890215 35.552553180737476 54.44780138246699 11.51644788190481 3.8388159606349763 3.8388159606349763 0.0 -0.0 0.7665764345255346 0.6421530736748979
101 17.6932961958164 18.150171725830923 60.79428041168004 11.51644788190481 3.8388159606349763 3.8388159606349763 0.0 -0.0 0.7486465484609144 0.6629693397718779
102 42.18722266267439 41.353287243399414 8.690210871946697 11.632190107333995 3.8773967024447114 3.8773967024447114 0.0 -0.0 0.764238184631255 0.644934102952793
103 25.309000411543362 42.13381898214329 0.6290219875624392 11.632190107333995 3.8773967024447114 3.8773967024447114 0.0 -0.0 0.7262700822056904 0.6874094614514261
104 52.41330532309977 59.72774731078618 46.91695348410336 11.749095561467616 3.9163651871557863 3.9163651871557863 0.0 0.0 0.6864264585310771 0.7271992278794606
105 20.411855288848745 42.61841830363199 10.818526988169403 11.749095561467616 3.9163651871557863 3.9163651871557863 0.0 -0.0 0.8498704758576332 0.5269916263713497
106 12.029541593892576 16.610193370253118 47.66566187272474 11.867175934947909 3.955725311649377 3.955725311649377 0.0 -0.0 0.793590538753224 0.6084521811953406
107 40.35835182392011 43.887423227742694 16.454543797073956 11.867175934947909 3.955725311649377 3.955725311649377 0.0 -0.0 0.8299364941277125 0.5578578812878792
108 50.7681069331026 37.67793609353654 55.72781475796454 11.986443035911416 3.9954810119704627 3.9954810119704627 0.0 -0.0 0.7596155095013813 0.650372414640225
109 59.41029345656977 36.752092423364545 4.037066395256798 11.986443035911416 3.9954810119704627 3.9954810119704627 0.0 -0.0 0.746179639226726 0.6657446552571586
110 41.76094334875327 19.883840221130672 52.72183404076033 12.106908791167147 4.035636263722377 4.035636263722377 0.0 -0.0 0.7434755474029917 0.6687631198068729
111 29.761621906594794 38.95944606742319 25.227975686214922 12.106908791167147 4.035636263722377 4.035636263722377 0.0 -0.0 0.7635489887521677 0.6457499065238353
112 54.488798590378764 60.79668003581379 18.687239331975576 12.228585247391218 4.076195082463817 4.076195082463817 0.0 -0.0 0.925703395166632 0.3782502137170186
113 19.657404608377036 6.455070156727261 7.175696899959754 12.228585247391218 4.076195082463817 4.076195082463817 0.0 -0.0 0.7476030998596368 0.6641457709571461
114 9.279430855336749 60.866554260601916 35.35942663600371 12.351484572330785 4.117161524110183 4.117161524110183 0.0 -0.0 0.7095009508808979 0.7047044775642494
115 26.69820786038223 12.384662916694033 52.55798296848949 12.351484572330785 4.117161524110183 4.117161524110183 0.0 0.0 0.692332939305712 0.7215782016887105
116 12.623329470245803 30.75688055479142 54.48420714842501 12.47561905601997 4.158539685340044 4.158539685340044 0.0 0.0 0.4838188577050026 0.8751681626573412
117 43.117504803530444 38.59215674579181 24.172191130744746 12.47561905601997 4.158539685340044 4.158539685340044 0.0 0.0 0.4072390243389004 0.9133216175343166
118 42.01762848785787 15.493628678773515 60.64283850475866 12.601001112011396 4.200333704003801 4.200333704003801 0.0 -0.0 0.9854258972554679 0.17010526452245991
119 32.64586538680221 29.848888240648986 60.660662606396706 12.601001112011396 4.200333704003801 4.200333704003801 0.0 0.0 0.693566054094668 0.720393037589587
120 25.181330126617866 21.710077152858137 29.429534494578295 12.727643278615142 4.242547759538299 4.242547759538299 0.0 -0.0 0.8546373086497397 0.5192254526349123
121 60.74584362230471 35.90571227227215 55.1379684267591 12.727643278615142 4.242547759538299 4.242547759538299 0.0 -0.0 0.738138054050796 0.6746496966293722
122 58.187909709015315 21.991464837171442 0.029988906119342573 12.855558220152826 4.285186073384244 4.285186073384244 0.0 0.0 0.30497028615780525 0.9523618663936657
123 44.16103261190541 43.12230073755028 51.91970520795437 12.855558220152826 4.285186073384244 4.285186073384244 0.0 -0.0 0.8240326158671573 0.5665423620411186
124 5.807425895041231 34.94575523128355 60.71978355734769 12.984758728225648 4.328252909408542 4.328252909408542 0.0 -0.0 0.7351480847541838 0.6779065521753388
125 60.88697597750805 60.840359345809205 50.0984861611557 12.984758728225648 4.328252909408542 4.328252909408542 0.0 0.0 0.6354145425399089 0.7721711980699606
126 37.343185846271766 60.555102203982074 43.511580149547555 13.11525772299191 4.371752574330652 4.371752574330652 0.0 -0.0 0.9631928649301144 0.2688112812880415
127 2.2229217065741413 26.787664052267168 36.75214126855494 13.11525772299191 4.371752574330652 4.371752574330652 0.0 0.0 0.6645731125154195 0.7472232451694524
128 6.634765946835336 44.70840049420956 48.54068708436263 13.247068254459688 4.415689418153228 4.415689418153228 0.0 -0.0 0.837305869343264 0.5467347447925007
129 34.35610220246127 56.31067354653944 12.388799204667633 13.247068254459688 4.415689418153228 4.415689418153228 0.0 0.0 0.6718759690179156 0.7406636768846148
130 28.56596875995955 33.532118186950136 15.843473625389421 13.38020350379241 4.460067834597517 4.460067834597517 0.0 -0.0 0.8172568989423515 0.5762735124323614
131 8.512800694889703 36.79482462439846 35.548787393238634 13.38020350379241 4.460067834597517 4.460067834597517 0.0 0.0 0.5650588956672867 0.8250505708302167
132 25.639639714023623 60.24104706428915 52.20564890419888 13.514676784625703 4.504892261541966 4.504892261541966 0.0 0.0 0.5632303093681869 0.8262999568008076
133 16.08672445143076 46.325513921682614 32.836048033032164 13.514676784625703 4.504892261541966 4.504892261541966 0.0 0.0 0.7047758212396541 0.7094300823872436
134 59.02242402437638 28.844928396937053 45.73468943905801 13.650501544399651 4.5501671814665405 4.5501671814665405 0.0 -0.0 0.7457546235329385 0.6662207152882933
135 41.11171148522865 37.64698537793744 0.13659787930432102 13.650501544399651 4.5501671814665405 4.5501671814665405 0.0 0.0 0.5807371118896761 0.8140911539097067
136 20.280514659037543 58.49721337342688 60.768211918519484 13.78769136570344 4.5958971219012295 4.5958971219012295 0.0 -0.0 0.7765636880913803 0.6300387593933514
137 0.02516382675243639 40.76037515831207 21.226505259948432 13.78769136570344 4.5958971219012295 4.5958971219012295 0.0 -0.0 0.9207785641385271 0.39008567754147583
138 56.270254210991965 16.1974991423802 24.39959297430531 13.92625996763374 4.642086655877881 4.642086655877881 0.0 0.0 0.5933031767685688 0.8049790931672228
139 6.406152197655292 5.770456026754923 60.77579024745276 13.92625996763374 4.642086655877881 4.642086655877881 0.0 0.0 0.36293328461656904 0.9318151270061183
140 60.52216188156725 60.72102788406137 39.12983828134513 14.06622120716635 4.688740402388777 4.688740402388777 0.0 0.0 0.5657838974393875 0.8245535649054563
141 17.030897880194182 42.84983384410235 53.86406115228424 14.06622120716635 4.688740402388777 4.688740402388777 0.0 0.0 0.5898626798291705 0.8075035720941112
142 6.870763087422087 12.776021405621222 7.607284398489571 14.207589080540936 4.735863026847008 4.735863026847008 0.0 0.0 0.494526605223718 0.8691624915548904
143 30.89783083824813 60.773307200269024 0.1689081558402755 14.207589080540936 4.735863026847008 4.735863026847008 0.0 0.0 0.6621201748514545 0.7493976741721844
144 10.172188597814355 32.567191639496315 44.854349701516014 14.35037772466355 4.783459241554624 4.783459241554624 0.0 -0.0 0.8358120424685423 0.5490156916378287
145 12.306950735681614 25.242884024262388 13.281644018888915 14.35037772466355 4.783459241554624 4.783459241554624 0.0 -0.0 0.7380766977143534 0.6747168208152773
146 17.84061041788501 60.267140499126704 46.393604347586944 14.494601418517274 4.8315338061725255 4.8315338061725255 0.0 0.0 0.5600689403365469 0.8284460043179022
147 37.88313507380609 13.757146682935925 31.550019645276812 14.494601418517274 4.8315338061725255 4.8315338061725255 0.0 -0.0 0.8053653384335279 0.5927787712543771
148 60.86703412573287 16.513577330667054 52.351372163789584 14.640274584592097 4.8800915281973545 4.8800915281973545 0.0 -0.0 0.9475491048281723 0.31961022189430877
149 43.19640083038516 60.765392331510476 24.24187239522377 14.640274584592097 4.8800915281973545 4.8800915281973545 0.0 -0.0 0.8855269061838191 0.46458809543994295
150 14.743918407761674 27.22077531288074 23.108712942496965 14.787411790325388 4.929137263441798 4.929137263441798 0.0 -0.0 0.8997163709941051 0.43647502994466686
151 32.794791074940655 30.09463460992877 36.75585036973172 14.787411790325388 4.929137263441798 4.929137263441798 0.0 0.0 0.6949034215940625 0.7191030765174521
152 55.90991868165167 60.485105568199884 0.05441382836217912 14.936027749560656 4.978675916520197 4.978675916520197 0.0 0.0 0.6496096252583186 0.7602679361723385
153 31.843807356474876 37.809393375762 6.171371303735669 14.936027749560656 4.978675916520197 4.978675916520197 0.0 0.0 0.6980264017745981 0.7160720232110785
154 39.55543716892469 7.920338082720667 9.304799624817418 15.086137324017285 5.028712441339105 5.028712441339105 0.0 -0.0 0.9126309719920443 0.4087844284716046
155 22.750135941637062 24.76298486240718 5.895632441746327 15.086137324017285 5.028712441339105 5.028712441339105 0.0 0.0 0.34897032679986184 0.9371337743423815
156 34.817090163842174 39.5455020462025 45.954626527511664 15.237755524778606 5.0792518415927805 5.0792518415927805 0.0 0.0 0.6995675014656925 0.7145665195718649
157 25.091165554634465 31.57953140292057 45.49154331723918 15.237755524778606 5.0792518415927805 5.0792518415927805 0.0 0.0 0.63565327495599 0.7719746848425306
158 52.23800030654994 60.74467132408681 31.68161386924606 15.390897513790392 5.130299171263342 5.130299171263342 0.0 -0.0 0.7426985308561326 0.6696259345814963
159 21.49282050483514 15.063585330359096 15.247680453314237 15.390897513790392 5.130299171263342 5.130299171263342 0.0 0.0 0.4891044501540252 0.8722252213961303
160 46.146820989616195 56.178198655819884 2.0428241693272953 15.545578605379209 5.181859535126431 5.181859535126431 0.0 0.0 0.6466947184788655 0.7627489371290798
161 27.069146859625814 6.500813814252511 36.746479183815055 15.545578605379209 5.181859535126431 5.181859535126431 0.0 0.0 0.6377575578887067 0.7702371695496348
162 60.65434023694144 60.83152274991856 8.024902173625618 15.701814267782927 5.233938089260947 5.233938089260947 0.0 0.0 0.6701572236966805 0.7422191694689361
163 37.745302933776465 59.43426646291393 33.63020827454305 15.701814267782927 5.233938089260947 5.233938089260947 0.0 -0.0 0.7797338016261434 0.6261111711203069
164 44.80467617440377 39.21895480046686 35.651971287295794 15.85962012469886 5.286540041566287 5.286540041566287 0.0 0.0 0.6966086930688543 0.7174512727293072
165 0.02004394555905975 28.777197934914266 15.44683908208393 15.85962012469886 5.286540041566287 5.286540041566287 0.0 -0.0 0.8994069955971553 0.43711217813153935
11_F 18.64418874405085 34.95696382914054 -0.13670079209748565 5.952291456366653 1.9840971521222397 1.9840971521222397 0.0 0.0 0.49983922045674145 0.866118209999765
23_B 44.94048269944785 67.19185742276592 48.48518424938908 6.711189876736084 2.237063292245413 2.237063292245413 0.0 -0.0 0.7582829367961579 0.651925599868416
25_B 13.457619134427878 66.11442981674672 54.013386186828576 6.846764905420358 2.2822549684734335 2.2822549684734335 0.0 0.0 0.6637035342538496 0.7479957343587923
26_T 4.027439590927021 -3.9613506924813606 31.32724876627644 6.915576036705788 2.3051920122352327 2.3051920122352327 0.0 0.0 0.5361151400853296 0.8441448670526212
30_T 20.36222316619808 -3.1148222293391896 23.97963904868388 7.197806048750107 2.3992686829167176 2.3992686829167176 0.0 -0.0 0.8433777540022546 0.5373210995802349
36_BB 38.17339507625324 63.71107897488851 58.83398352488598 7.6428935175079245 2.547631172502709 2.547631172502709 0.0 -0.0 0.739632735620696 0.6730107104632479
36_FT 38.17339507625324 2.8110789748885088 -2.0660164751140186 7.6428935175079245 2.547631172502709 2.547631172502709 0.0 -0.0 0.739632735620696 0.6730107104632479
36_FB 38.17339507625324 63.71107897488851 -2.0660164751140186 7.6428935175079245 2.547631172502709 2.547631172502709 0.0 -0.0 0.739632735620696 0.6730107104632479
42_T 14.040843052093976 -6.28019362842371 40.293579482099446 8.115503658244467 2.7051678860815427 2.7051678860815427 0.0 0.0 0.6858728758951139 0.7277213739552836
43_L -0.9270529256116191 41.17427099604389 40.059010649853874 8.197065825982234 2.7323552753273646 2.7323552753273646 0.0 -0.0 0.8971229945165649 0.4417808650333688
45_T 50.949494587562484 -3.554296575597114 39.4742906576575 8.362657539954618 2.7875525133181562 2.7875525133181562 0.0 -0.0 0.8021859139948743 0.5970743332184094
46_T 17.90332131992825 -4.673680023684753 13.006169378064056 8.446703645498618 2.81556788183292 2.81556788183292 0.0 0.0 0.6689296931602822 0.7433256793683982
48_R 61.204152950533576 47.39015740398455 14.476749160380798 8.617338377946727 2.8724461259822434 2.8724461259822434 0.0 0.0 0.43861391052531945 0.8986756019241242
49_B 25.484231802060844 61.06580995774009 8.89402659699278 8.703944068465896 2.9013146894885944 2.9013146894885944 0.0 -0.0 0.7611420715427216 0.6485851886434459
50_F 26.22127206018169 22.562054267866845 -0.6457654322315278 8.791420160645213 2.930473386881706 2.930473386881706 0.0 0.0 0.5689873473401131 0.8223462765568174
53_FT 7.1156502240192685 -7.800386709359692 1.5444997669799254 9.05915876442718 3.0197195881424412 3.0197195881424412 0.0 0.0 0.4937832216878833 0.8695850332081013
53_BT 7.1156502240192685 -7.800386709359692 62.44449976697992 9.05915876442718 3.0197195881424412 3.0197195881424412 0.0 0.0 0.4937832216878833 0.8695850332081013
53_BB 7.1156502240192685 53.099613290640306 62.44449976697992 9.05915876442718 3.0197195881424412 3.0197195881424412 0.0 0.0 0.4937832216878833 0.8695850332081013
56_B 41.89809856035933 64.19121026052957 16.635886489642484 9.242165910983722 3.0807219703279354 3.0807219703279354 0.0 0.0 0.591041689671776 0.8066410112744902
57_T 50.9796880306244 -0.2976051223869618 54.0528509312602 9.242165910983722 3.0807219703279354 3.0807219703279354 0.0 0.0 0.6906372933410847 0.7232013060320761