ITEM: TIMESTEP
363
ITEM: NUMBER OF ATOMS
210
ITEM: BOX BOUNDS ff ff ff
0 60.9
60.9 0
60.9 0
ITEM: ATOMS id x y z AsphericalShapeX AsphericalShapeY AsphericalShapeZ OrientationX OrientationY OrientationZ OrientationW
1 48.2979176242846 44.67886149995983 25.881174460347516 2.569399208296957 0.8564664027656573 0.8564664027656573 0.0 -0.0 0.7863642711635499 0.6177630881150306
2 15.760033216341672 11.948078919035115 24.50822637742995 2.595222099646277 0.8650740332154144 0.8650740332154144 0.0 -0.0 0.8896314041555925 0.4566792799549252
3 11.950377302029077 25.78816339692953 58.76515444903462 2.6213045153682235 0.8737681717894098 0.8737681717894098 0.0 0.0 0.631512325711268 0.7753658378305981
4 17.807529401729422 56.44415512980246 46.16691292139937 2.6476490637261847 0.8825496879087197 0.8825496879087197 0.0 0.0 0.5765741652112841 0.8170448164029381
5 45.275317373037126 7.752747074323094 11.514343721079532 2.6742583791968744 0.8914194597322816 0.8914194597322816 0.0 -0.0 0.8873914294477543 0.4610167577677315
6 28.269428122989613 1.3152785061343109 20.360635010305057 2.70113512273402 0.9003783742446794 0.9003783742446794 0.0 0.0 0.643710445538684 0.7652691437033046
7 38.31861964396329 0.3582382709036067 27.65571288034779 2.728281982034417 0.9094273273448102 0.9094273273448102 0.0 -0.0 0.7603958793842515 0.6494598575858641
8 45.97624870820439 33.861334113517394 14.337779997760526 2.7557016718065825 0.9185672239355263 0.9185672239355263 0.0 -0.0 0.7854601334426244 0.6189122545016335
9 47.72228382338238 58.86703986193151 50.97019322382029 2.7833969340423717 0.9277989780141254 0.9277989780141254 0.0 -0.0 0.7176002965020949 0.6964551776389529
10 6.4455171736020365 3.3086471437438383 12.705884057126577 2.81137053829105 0.9371235127636878 0.9371235127636878 0.0 0.0 0.38534345666417513 0.9227732226317065
11 28.352934043494038 21.683681483423108 2.263895127974183 2.8396252819363843 0.9465417606454564 0.9465417606454564 0.0 0.0 0.49983922045674145 0.866118209999765
12 1.471710542137569 5.676470650941531 23.582658332956818 2.8681639904762517 0.9560546634920821 0.9560546634920821 0.0 0.0 0.2746680171135514 0.9615391205639581
13 11.016338899322168 55.28540580209921 24.301781804479322 2.896989517805366 0.9656631726017804 0.9656631726017804 0.0 -0.0 0.7886508549344257 0.614841303924191
14 14.249244003564325 28.322947281205106 27.25702316765758 2.9261047465003838 0.9753682488334482 0.9753682488334482 0.0 -0.0 0.7750680292508737 0.6318777967559605
15 24.144263323856368 49.06675751975017 25.0529539019346 2.955512588108464 0.9851708627028221 0.9851708627028221 0.0 0.0 0.6340811782098568 0.7732664866913604
16 13.678890300956816 38.619063637943526 54.973877415594465 2.9852159834383514 0.9950719944794415 0.9950719944794415 0.0 -0.0 0.7629176367612683 0.6464956918020424
17 28.07600545026434 14.142835596655472 34.98123609445276 3.0152179028542165 1.0050726342847331 1.0050726342847331 0.0 0.0 0.6579222258448839 0.7530858813836
18 38.46002263012719 34.50333566113536 12.495241054777658 3.045521346573082 1.0151737821910216 1.0151737821910216 0.0 0.0 0.506211649243881 0.8624092799650234
19 15.525563057822646 15.625390764421027 41.24802178233029 3.076129344964551 1.0253764483215073 1.0253764483215073 0.0 0.0 0.6434542777811493 0.7654845474633303
20 27.26843149778028 57.873017943675045 27.378256057720886 3.10704495885395 1.035681652951321 1.035681652951321 0.0 -0.0 0.7861857262579329 0.6179902942832407
21 43.30871608371811 22.99532945465457 50.23976832435905 3.138271279828454 1.0460904266094706 1.0460904266094706 0.0 0.0 0.6069811502172251 0.7947162281474907
22 7.973106320163172 49.72469775324691 41.705186117310156 3.1698114305461353 1.056603810182052 1.056603810182052 0.0 -0.0 0.8910647246123514 0.45387625687131333
23 44.69428329265759 60.604429300013955 48.90098660461385 3.2016685650484673 1.06722285501615 1.06722285501615 0.0 -0.0 0.7582829367961579 0.651925599868416
24 27.169995157039622 9.225631294818239 51.931916795304495 3.2338458690753304 1.0779486230251127 1.0779486230251127 0.0 0.0 0.5255054740936084 0.8507902189715464
25 19.602652692491297 57.59395163623917 59.75375062547988 3.2663465603839987 1.0887821867946557 1.0887821867946557 0.0 0.0 0.6637035342538496 0.7479957343587923
26 56.97190167322038 7.791961850923714 38.052762574229085 3.2991738890706075 1.0997246296902132 1.0997246296902132 0.0 0.0 0.5361151400853296 0.8441448670526212
27 60.68545355291107 16.639487608683968 20.76730353470693 3.3323311378954923 1.1107770459651762 1.1107770459651762 0.0 -0.0 0.7297620279401082 0.6837012378054764
28 20.271153282348898 39.0079347780523 37.726382102016096 3.3658216226111204 1.1219405408703695 1.1219405408703695 0.0 -0.0 0.9828164757017253 0.18458541407500267
29 45.02272694804373 28.44293242284983 29.639838728039276 3.3996486922938756 1.1332162307646314 1.1332162307646314 0.0 -0.0 0.8740853421614372 0.4857723897243679
30 18.460786971935313 1.8413040797343414 25.23378212746728 3.4338157296788983 1.1446052432263059 1.1446052432263059 0.0 -0.0 0.8433777540022546 0.5373210995802349
31 49.09568817113543 41.55611728920929 47.965728122244634 3.46832615149842 1.1561087171661473 1.1561087171661473 0.0 0.0 0.6952778540174372 0.7187410560924617
32 2.6327901103007783 37.29458183472603 37.2629777103274 3.503183408823356 1.1677278029411255 1.1677278029411255 0.0 0.0 0.6353234605105568 0.7722461398575527
33 24.662833212937407 21.769670370715623 24.33747166283695 3.5383909874085235 1.1794636624695043 1.1794636624695043 0.0 0.0 0.6411270229476993 0.7674347792784871
34 11.600622011041446 17.04784229340328 34.969906469916545 3.573952408041088 1.1913174693470379 1.1913174693470379 0.0 -0.0 0.7453722743584635 0.6666484625480594
35 29.79084529507794 43.402789701525684 40.66891671296076 3.6098712268927957 1.2032904089642686 1.2032904089642686 0.0 -0.0 0.7109313362059317 0.7032614273514853
36 33.17029466010246 13.237897796092382 12.519035890868171 3.646151035875362 1.2153836786251293 1.2153836786251293 0.0 -0.0 0.739632735620696 0.6730107104632479
37 16.8394078039322 52.195512462631285 24.397426436712376 3.682795463000036 1.2275984876666888 1.2275984876666888 0.0 0.0 0.5163603530767541 0.8563714064414165
38 23.40719377895114 4.29721705109288 15.79003779353675 3.719808172739986 1.2399360575799918 1.2399360575799918 0.0 0.0 0.5145463711011363 0.8574625542766586
39 12.856321662335844 23.528427707520006 28.02822907414298 3.7571928663970917 1.252397622132364 1.252397622132364 0.0 0.0 0.5880831456971182 0.8088004783300898
40 55.1591409350278 20.087601551307028 17.30729869091099 3.794953282471858 1.2649844274906072 1.2649844274906072 0.0 -0.0 0.8608342640850161 0.5088854191045453
41 2.6273105459324535 11.17022416335059 45.31909482190133 3.8330931970372863 1.2776977323457603 1.2776977323457603 0.0 0.0 0.5813114541301716 0.8136811373609846
42 18.74208709619368 57.17521599270713 41.62353940797829 3.8716164241167035 1.290538808038901 1.290538808038901 0.0 0.0 0.6858728758951139 0.7277213739552836
43 7.835971330576918 12.223953415393446 29.74087368184454 3.910526816064857 1.303508938688296 1.303508938688296 0.0 -0.0 0.8971229945165649 0.4417808650333688
44 40.31959809870999 12.987568473953308 35.06011958707612 3.9498282639534885 1.316609421317814 1.316609421317814 0.0 -0.0 0.7662793896249596 0.6425075073771507
45 29.824919298168847 37.195071828005084 33.50349876492412 3.9895246979599355 1.3298415659866443 1.3298415659866443 0.0 -0.0 0.8021859139948743 0.5970743332184094
46 21.514866021205663 27.946785321489944 14.472362623085893 4.029620087760874 1.343206695920292 1.343206695920292 0.0 0.0 0.6689296931602822 0.7433256793683982
47 47.39585778238936 11.56245899986742 13.062607894539244 4.070118442928572 1.3567061476428575 1.3567061476428575 0.0 -0.0 0.8121614142020023 0.5834328044268712
48 60.18372864506039 59.13005575604141 19.427574809042394 4.1110238133323795 1.3703412711107943 1.3703412711107943 0.0 0.0 0.43861391052531945 0.8986756019241242
49 21.71858812685336 20.14848689831466 4.362014347298365 4.152340289543338 1.3841134298477835 1.3841134298477835 0.0 -0.0 0.7611420715427216 0.6485851886434459
50 32.310249832992085 14.588799752029693 52.58895824445859 4.194072003243556 1.3980240010811922 1.3980240010811922 0.0 0.0 0.5689873473401131 0.8223462765568174
51 6.1279562891401955 19.309557252255104 40.71103480001206 4.236223127639236 1.4120743758797305 1.4120743758797305 0.0 -0.0 0.9816329176571261 0.1907794930592849
52 33.57956327022913 47.95829853062969 24.76546692972292 4.2787978778778 1.4262659592925955 1.4262659592925955 0.0 -0.0 0.8312938914163103 0.5558331279205367
53 12.509405318107467 55.71690478215582 8.440633286566506 4.321800511469828 1.440600170489958 1.440600170489958 0.0 0.0 0.4937832216878833 0.8695850332081013
54 32.67751333840356 53.18530816396599 42.38234630888366 4.365235328714545 1.4550784429048453 1.4550784429048453 0.0 -0.0 0.7425013715714329 0.6698445440656666
55 21.119265525570366 47.3094458776521 6.096744292356227 4.365235328714545 1.4550784429048453 1.4550784429048453 0.0 -0.0 0.899222239431846 0.4374921303419936
56 43.04697488707663 13.17444775324633 22.171862318709035 4.40910667312985 1.469702224376615 1.469702224376615 0.0 0.0 0.591041689671776 0.8066410112744902
57 54.18035933245483 58.313906755372486 50.606862531410464 4.40910667312985 1.469702224376615 1.469702224376615 0.0 0.0 0.6906372933410847 0.7232013060320761
58 34.41864405978097 51.40681070635209 33.57735168666904 4.453418931886719 1.4844729772955694 1.4844729772955694 0.0 -0.0 0.9778925487455288 0.20910801779935065
59 31.351571709780497 56.697924553740386 24.275912312481722 4.453418931886719 1.4844729772955694 1.4844729772955694 0.0 -0.0 0.8334397726994561 0.5526103014626843
60 41.45699272285239 28.448955709176985 57.26775258656874 4.4981765362480095 1.4993921787493305 1.4993921787493305 0.0 -0.0 0.8251393648538317 0.5649292243888745
61 7.17645018820801 44.405849049913826 39.241818662008534 4.4981765362480095 1.4993921787493305 1.4993921787493305 0.0 -0.0 0.8342848482439009 0.5513336485202505
62 17.08408187045416 52.58698628280862 27.4788516070764 4.54338396201136 1.5144613206704491 1.5144613206704491 0.0 0.0 0.6993489688984815 0.7147803996337831
63 38.63078568477731 54.815765120884365 52.056862756984906 4.54338396201136 1.5144613206704491 1.5144613206704491 0.0 0.0 0.6638694557235675 0.747848477806363
64 41.773371804290804 45.59904830608815 38.85708263942523 4.589045729957153 1.5296819099857093 1.5296819099857093 0.0 0.0 0.5469534661185369 0.8371630103515794
65 23.820745046925804 11.995690519942183 1.9347132677114198 4.589045729957153 1.5296819099857093 1.5296819099857093 0.0 0.0 0.534266604389083 0.8453160328744268
66 38.47870453314534 16.662572985477112 19.436285280859053 4.635166406300065 1.5450554687666949 1.5450554687666949 0.0 0.0 0.49259387534365895 0.8702593142126752
67 60.26499960712408 16.438930876007966 12.446231045525623 4.635166406300065 1.5450554687666949 1.5450554687666949 0.0 -0.0 0.7991221049958454 0.6011687461162707
68 39.48874238194243 33.11374231949127 23.124633006838017 4.681750603146294 1.5605835343821084 1.5605835343821084 0.0 -0.0 0.8113628171424923 0.5845428803420658
69 40.226775819662755 13.405824139723325 57.01231719018188 4.681750603146294 1.5605835343821084 1.5605835343821084 0.0 0.0 0.69974083585519 0.7143967823532522
70 57.59067301085655 50.58040034962414 25.205792620703075 4.728802978954348 1.5762676596514358 1.5762676596514358 0.0 -0.0 0.9226100212719841 0.3857340387475665
71 28.050697515248864 11.876669330123121 30.18734383007439 4.728802978954348 1.5762676596514358 1.5762676596514358 0.0 -0.0 0.8908476943010929 0.4543020862360491
72 4.075006974462214 44.52029130901274 8.95070524065861 4.776328239000946 1.5921094130003157 1.5921094130003157 0.0 -0.0 0.9180976465577227 0.39635427509384946
73 48.94362511953907 27.60092890586045 36.199241423072685 4.776328239000946 1.5921094130003157 1.5921094130003157 0.0 0.0 0.6852526383261238 0.7283054453092375
74 50.500761135926744 46.85105281020001 10.28948758780631 4.824331135851739 1.6081103786172497 1.6081103786172497 0.0 0.0 0.6622208999947843 0.7493086677799063
75 0.5261816640327966 1.7102178935188515 32.10085308725809 4.824331135851739 1.6081103786172497 1.6081103786172497 0.0 0.0 0.6669694181073614 0.7450850926636016
76 58.49495245086495 10.945953605203298 26.11000955372784 4.872816469836363 1.6242721566121414 1.6242721566121414 0.0 0.0 0.4849872773235938 0.8745212066235144
77 18.1127929903438 43.6122458894565 13.213362570514006 4.872816469836363 1.6242721566121414 1.6242721566121414 0.0 -0.0 0.724549744492829 0.6892225096116464
78 5.779451789260854 10.446776425158603 7.219545797821205 4.92178908952872 1.64059636317624 1.64059636317624 0.0 0.0 0.646327957303847 0.7630597431442944
79 3.6301473408855705 22.52830235794434 27.47139775862405 4.92178908952872 1.64059636317624 1.64059636317624 0.0 0.0 0.4210348644808628 0.9070444547493698
80 52.30452024355727 13.46865282101566 19.497192752841876 4.971253892231547 1.657084630743831 1.657084630743831 0.0 0.0 0.5786941501693628 0.8155446527074768
81 3.901407531211799 53.23444681149036 36.42942674957566 4.971253892231547 1.657084630743831 1.657084630743831 0.0 0.0 0.683142879342022 0.730284743373632
82 11.437009990973735 20.02498114977799 59.32231136123154 5.021215824466275 1.6737386081554113 1.6737386081554113 0.0 0.0 0.3480344086077516 0.937481760049257
83 19.792428136278485 5.294825755199559 2.4239706424741883 5.021215824466275 1.6737386081554113 1.6737386081554113 0.0 -0.0 0.8280938516825816 0.560589486884571
84 33.17256669554787 45.366891682972906 15.314554238431345 5.071679882467809 1.690559960822615 1.690559960822615 0.0 -0.0 0.8521868438699086 0.5232375972109076
85 21.30739932361144 37.64366359694234 29.221040305234286 5.071679882467809 1.690559960822615 1.690559960822615 0.0 0.0 0.2683204071818837 0.9633297250109892
86 11.81009777791266 46.465738007611115 56.10360165193848 5.122651112684008 1.7075503708946862 1.7075503708946862 0.0 0.0 0.5717525694490604 0.8204261083902665
87 17.899695541918017 6.943419618802864 41.40592740264812 5.122651112684008 1.7075503708946862 1.7075503708946862 0.0 -0.0 0.7407334016199733 0.6717990977401677
88 22.76835442611884 53.99681193978252 53.00760623933698 5.174134612280421 1.7247115374267923 1.7247115374267923 0.0 0.0 0.6524446383875427 0.7578363898885753
89 15.318719087139147 28.54608839832258 41.32771590805497 5.174134612280421 1.7247115374267923 1.7247115374267923 0.0 0.0 0.3815125934194192 0.9243636411404275
90 14.91154952690336 59.14539571849292 47.99872645525789 5.22613552964982 1.7420451765499212 1.7420451765499212 0.0 -0.0 0.7664413141092511 0.642314340511314
91 39.26075309469363 11.542888507440324 31.62315587056826 5.22613552964982 1.7420451765499212 1.7420451765499212 0.0 -0.0 0.7164030651197486 0.6976866404676452
92 56.272181214256335 21.003350131357728 45.29717060328761 5.278659064927267 1.75955302164242 1.75955302164242 0.0 0.0 0.3159382626609752 0.9487797500931208
93 15.875290854391633 41.16415647637633 40.16021411448121 5.278659064927267 1.75955302164242 1.75955302164242 0.0 -0.0 0.807675111463051 0.5896277760783901
94 58.26669457226063 8.292504539201953 44.898003250940924 5.331710470510141 1.7772368235034 1.7772368235034 0.0 0.0 0.5856043209472178 0.8105970511221638
95 43.35328589113204 18.689577997101683 54.360631778870086 5.331710470510141 1.7772368235034 1.7772368235034 0.0 -0.0 0.8283891439806925 0.5601530381377355
96 34.48694570740842 0.750781735441306 40.71794821163916 5.38529505158316 1.7950983505277434 1.7950983505277434 0.0 0.0 0.6380161188650698 0.7700230074928626
97 26.56059840266322 24.56940745899528 26.634142237215126 5.38529505158316 1.7950983505277434 1.7950983505277434 0.0 0.0 0.5652655734899162 0.8249089837231233
98 20.651178278343487 21.572328319740688 40.60939141799824 5.439418166649154 1.8131393888830538 1.8131393888830538 0.0 -0.0 0.9884337224668884 0.15165347437579585
99 47.993363618691355 27.643412578260826 12.0335327183374 5.439418166649154 1.8131393888830538 1.8131393888830538 0.0 0.0 0.644584962479319 0.7645326848117973
100 35.61332929490651 20.172801724409005 54.88613931110333 5.494085228064629 1.8313617426882074 1.8313617426882074 0.0 -0.0 0.7665764345255346 0.6421530736748979
101 13.990033524147014 31.917455605954 58.75746438826427 5.494085228064629 1.8313617426882074 1.8313617426882074 0.0 -0.0 0.7486465484609144 0.6629693397718779
102 41.354286711171824 18.509915825384713 16.455116695113524 5.549301702581315 1.8497672341937768 1.8497672341937768 0.0 -0.0 0.764238184631255 0.644934102952793
103 25.23910335323715 23.771086957979538 12.785997115314512 5.549301702581315 1.8497672341937768 1.8497672341937768 0.0 -0.0 0.7262700822056904 0.6874094614514261
104 42.576338900537856 54.65315197327654 43.60904338814798 5.605073111892793 1.8683577039642374 1.8683577039642374 0.0 0.0 0.6864264585310771 0.7271992278794606
105 19.767567301838408 59.09370136401006 16.208054921983354 5.605073111892793 1.8683577039642374 1.8683577039642374 0.0 -0.0 0.8498704758576332 0.5269916263713497
106 15.590547891466537 31.48136297331151 52.432426259667736 5.66140503318626 1.8871350110620875 1.8871350110620875 0.0 -0.0 0.793590538753224 0.6084521811953406
107 44.24657040248426 12.232598243961752 17.545681209114363 5.66140503318626 1.8871350110620875 1.8871350110620875 0.0 -0.0 0.8299364941277125 0.5578578812878792
108 50.6457490429792 12.294995036606986 0.07482866124979014 5.718303099700952 1.9061010332336257 1.9061010332336257 0.0 -0.0 0.7596155095013813 0.650372414640225
109 9.896193499474473 53.09082241344867 48.704645038155256 5.718303099700952 1.9061010332336257 1.9061010332336257 0.0 -0.0 0.746179639226726 0.6657446552571586
110 33.8356000818845 10.831227771889132 48.4017961675657 5.7757730012908475 1.9252576670969233 1.9252576670969233 0.0 -0.0 0.7434755474029917 0.6687631198068729
111 39.40675242767368 0.4990867271680002 14.938936983242478 5.7757730012908475 1.9252576670969233 1.9252576670969233 0.0 -0.0 0.7635489887521677 0.6457499065238353
112 48.004448215513754 6.268494832128433 19.84988103236472 5.8338204849939865 1.944606828331355 1.944606828331355 0.0 -0.0 0.925703395166632 0.3782502137170186
113 14.84800583257577 5.135998841595704 17.512632674216402 5.8338204849939865 1.944606828331355 1.944606828331355 0.0 -0.0 0.7476030998596368 0.6641457709571461
114 58.81234839071252 25.149514810044487 34.81316568050272 5.892451355607234 1.9641504518690784 1.9641504518690784 0.0 -0.0 0.7095009508808979 0.7047044775642494
115 28.03428090673405 34.95267605783116 2.028754774720836 5.892451355607234 1.9641504518690784 1.9641504518690784 0.0 0.0 0.692332939305712 0.7215782016887105
116 19.69560479681072 6.9194974379000875 50.50403212345713 5.951671476266469 1.9838904920887965 1.9838904920887965 0.0 0.0 0.4838188577050026 0.8751681626573412
117 2.5295806021815554 41.33740386769175 28.403661389807095 5.951671476266469 1.9838904920887965 1.9838904920887965 0.0 0.0 0.4072390243389004 0.9133216175343166
118 42.215818115444016 14.798098107349716 0.16724684449177313 6.011486769032963 2.0038289230109894 2.0038289230109894 0.0 -0.0 0.9854258972554679 0.17010526452245991
119 33.83390119649786 37.276030376135786 1.8847482320272837 6.011486769032963 2.0038289230109894 2.0038289230109894 0.0 0.0 0.693566054094668 0.720393037589587
120 37.043870985824356 35.13852989080487 32.43018811860964 6.071903215486007 2.023967738495337 2.023967738495337 0.0 -0.0 0.8546373086497397 0.5192254526349123
121 58.51463036780607 32.035620918556084 56.53908879013683 6.071903215486007 2.023967738495337 2.023967738495337 0.0 -0.0 0.738138054050796 0.6746496966293722
122 53.047722056399174 27.894183510594743 54.75118922977811 6.132926857320544 2.0443089524401983 2.0443089524401983 0.0 0.0 0.30497028615780525 0.9523618663936657
123 39.99361365321922 31.88796362230438 43.8810123179734 6.132926857320544 2.0443089524401983 2.0443089524401983 0.0 -0.0 0.8240326158671573 0.5665423620411186
124 44.31327734904855 44.64432894811642 54.08777327219294 6.194563796951672 2.0648545989838833 2.0648545989838833 0.0 -0.0 0.7351480847541838 0.6779065521753388
125 37.14433809556698 41.66691942610432 46.059079602037315 6.194563796951672 2.0648545989838833 2.0648545989838833 0.0 0.0 0.6354145425399089 0.7721711980699606
126 24.93820942734476 16.60344553541918 44.95524299073281 6.256820198124568 2.0856067327081744 2.0856067327081744 0.0 -0.0 0.9631928649301144 0.2688112812880415
127 1.3175867373380203 37.31074102960281 44.51994036114504 6.256820198124568 2.0856067327081744 2.0856067327081744 0.0 0.0 0.6645731125154195 0.7472232451694524
128 11.444914972719864 44.34418539576606 50.48671439733162 6.319702286531237 2.106567428843744 2.106567428843744 0.0 -0.0 0.837305869343264 0.5467347447925007
129 37.38165567988852 43.9314414098202 5.842592038333255 6.319702286531237 2.106567428843744 2.106567428843744 0.0 0.0 0.6718759690179156 0.7406636768846148
130 35.162628082808936 1.2917421435345813 9.989746374511439 6.383216350433154 2.127738783477698 2.127738783477698 0.0 -0.0 0.8172568989423515 0.5762735124323614
131 11.184163123256987 25.919203959912952 53.81941519654076 6.383216350433154 2.127738783477698 2.127738783477698 0.0 0.0 0.5650588956672867 0.8250505708302167
132 30.35028736464548 60.631501262212154 56.8106634717683 6.447368741289406 2.1491229137631085 2.1491229137631085 0.0 0.0 0.5632303093681869 0.8262999568008076
133 21.02384080964125 48.54897604712189 41.5696085711946 6.447368741289406 2.1491229137631085 2.1491229137631085 0.0 0.0 0.7047758212396541 0.7094300823872436
134 59.443140794814866 43.99548305548163 47.142232276163234 6.512165874392533 2.1707219581308346 2.1707219581308346 0.0 -0.0 0.7457546235329385 0.6662207152882933
135 45.6736383262089 6.4269054039138025 59.58822318262894 6.512165874392533 2.1707219581308346 2.1707219581308346 0.0 0.0 0.5807371118896761 0.8140911539097067
136 17.119699558538418 48.67721201788283 59.76835205751435 6.577614229510031 2.192538076503347 2.192538076503347 0.0 -0.0 0.7765636880913803 0.6300387593933514
137 9.265872987154975 48.68971809298153 26.670030694492688 6.577614229510031 2.192538076503347 2.192538076503347 0.0 -0.0 0.9207785641385271 0.39008567754147583
138 47.16346394667056 16.116638026248776 22.723117804162765 6.643720351531791 2.2145734505105867 2.2145734505105867 0.0 0.0 0.5933031767685688 0.8049790931672228
139 53.29373857572806 22.115190944789674 0.5645455297424644 6.643720351531791 2.2145734505105867 2.2145734505105867 0.0 0.0 0.36293328461656904 0.9318151270061183
140 1.4507724210985353 9.739741042891554 39.592787828643914 6.710490851125219 2.2368302837083998 2.2368302837083998 0.0 0.0 0.5657838974393875 0.8245535649054563
141 2.6420789546890564 54.23395183582515 49.035167822371726 6.710490851125219 2.2368302837083998 2.2368302837083998 0.0 0.0 0.5898626798291705 0.8075035720941112
142 1.7774690113704135 42.89340112377319 53.071463718798185 6.777932405395716 2.2593108017985957 2.2593108017985957 0.0 0.0 0.494526605223718 0.8691624915548904
143 33.7204251438519 13.114474974009822 0.7738243429893388 6.777932405395716 2.2593108017985957 2.2593108017985957 0.0 0.0 0.6621201748514545 0.7493976741721844
144 13.878696331571696 37.57954736570019 48.941233036440515 6.846051758555194 2.2820172528517384 2.2820172528517384 0.0 -0.0 0.8358120424685423 0.5490156916378287
145 57.79703398071488 37.981815785328024 20.577393644387836 6.846051758555194 2.2820172528517384 2.2820172528517384 0.0 -0.0 0.7380766977143534 0.6747168208152773
146 31.81427012079716 53.344905798553256 50.593698460784765 6.914855722595538 2.3049519075318465 2.3049519075318465 0.0 0.0 0.5600689403365469 0.8284460043179022
147 37.366213843739416 21.257421965411503 38.99807539454123 6.914855722595538 2.3049519075318465 2.3049519075318465 0.0 -0.0 0.8053653384335279 0.5927787712543771
148 0.995352064528445 29.075119098929356 50.42952883160784 6.984351177970539 2.3281170593235037 2.3281170593235037 0.0 -0.0 0.9475491048281723 0.31961022189430877
149 46.19581523881173 6.186273810856359 26.79146887821488 6.984351177970539 2.3281170593235037 2.3281170593235037 0.0 -0.0 0.8855269061838191 0.46458809543994295
150 32.442653356552775 15.251238028496703 16.200363525548276 7.054545074283662 2.3515150247612224 2.3515150247612224 0.0 -0.0 0.8997163709941051 0.43647502994466686
151 34.670849288353594 37.9751088098079 41.00328563575234 7.054545074283662 2.3515150247612224 2.3515150247612224 0.0 0.0 0.6949034215940625 0.7191030765174521
152 58.536553915054256 41.08749517431083 9.613278931307022 7.125444430983019 2.3751481436609843 2.3751481436609843 0.0 0.0 0.6496096252583186 0.7602679361723385
153 26.476932450118962 6.581484935427792 5.670604388347835 7.125444430983019 2.3751481436609843 2.3751481436609843 0.0 0.0 0.6980264017745981 0.7160720232110785
154 49.843033683364986 0.8057114042563169 6.698355848470038 7.197056338063292 2.399018779354431 2.399018779354431 0.0 -0.0 0.9126309719920443 0.4087844284716046
155 24.8730957991533 33.0280859994602 5.558175292195796 7.197056338063292 2.399018779354431 2.399018779354431 0.0 0.0 0.34897032679986184 0.9371337743423815
156 32.10620749884813 28.507091192943136 48.58420224009768 7.26938795677497 2.423129318924996 2.423129318924996 0.0 0.0 0.6995675014656925 0.7145665195718649
157 20.009897922603013 25.399197096803523 47.000477150132234 7.26938795677497 2.423129318924996 2.423129318924996 0.0 0.0 0.63565327495599 0.7719746848425306
158 54.520271286712365 3.6568383392684316 46.74831000565352 7.342446520340216 2.4474821734467413 2.4474821734467413 0.0 -0.0 0.7426985308561326 0.6696259345814963
159 10.810485976470186 29.638148048067855 9.581275208988165 7.342446520340216 2.4474821734467413 2.4474821734467413 0.0 0.0 0.4891044501540252 0.8722252213961303
160 51.752587302576934 39.21298905857926 21.61486759672743 7.416239334676197 2.4720797782254196 2.4720797782254196 0.0 0.0 0.6466947184788655 0.7627489371290798
161 33.10793337806282 14.362086640499985 35.642098050935424 7.416239334676197 2.4720797782254196 2.4720797782254196 0.0 0.0 0.6377575578887067 0.7702371695496348
162 21.492139838919154 18.899588132814483 19.732088627254992 7.490773779125923 2.4969245930419532 2.4969245930419532 0.0 0.0 0.6701572236966805 0.7422191694689361
163 41.12317445815414 58.29909524625161 37.20332116479641 7.490773779125923 2.4969245930419532 2.4969245930419532 0.0 -0.0 0.7797338016261434 0.6261111711203069
164 44.94661249679506 47.087023696185376 34.74617176809632 7.566057307195789 2.522019102398596 2.522019102398596 0.0 0.0 0.6966086930688543 0.7174512727293072
165 45.16348931743527 18.659992440611216 27.605666487686346 7.566057307195789 2.522019102398596 2.522019102398596 0.0 -0.0 0.8994069955971553 0.43711217813153935
6_B 28.269428122989613 62.21527850613431 20.360635010305057 2.70113512273402 0.9003783742446794 0.9003783742446794 0.0 0.0 0.643710445538684 0.7652691437033046
7_B 38.31861964396329 61.258238270903604 27.65571288034779 2.728281982034417 0.9094273273448102 0.9094273273448102 0.0 -0.0 0.7603958793842515 0.6494598575858641
9_T 47.72228382338238 -2.032960138068489 50.97019322382029 2.7833969340423717 0.9277989780141254 0.9277989780141254 0.0 -0.0 0.7176002965020949 0.6964551776389529
12_R 62.37171054213757 5.676470650941531 23.582658332956818 2.8681639904762517 0.9560546634920821 0.9560546634920821 0.0 0.0 0.2746680171135514 0.9615391205639581
23_T 44.69428329265759 -0.2955706999860439 48.90098660461385 3.2016685650484673 1.06722285501615 1.06722285501615 0.0 -0.0 0.7582829367961579 0.651925599868416
27_L -0.214546447088928 16.639487608683968 20.76730353470693 3.3323311378954923 1.1107770459651762 1.1107770459651762 0.0 -0.0 0.7297620279401082 0.6837012378054764
30_B 18.460786971935313 62.74130407973434 25.23378212746728 3.4338157296788983 1.1446052432263059 1.1446052432263059 0.0 -0.0 0.8433777540022546 0.5373210995802349
42_T 18.74208709619368 -3.724784007292868 41.62353940797829 3.8716164241167035 1.290538808038901 1.290538808038901 0.0 0.0 0.6858728758951139 0.7277213739552836
48_LB -0.7162713549396074 59.13005575604141 19.427574809042394 4.1110238133323795 1.3703412711107943 1.3703412711107943 0.0 0.0 0.43861391052531945 0.8986756019241242
48_RT 60.18372864506039 -1.7699442439585908 19.427574809042394 4.1110238133323795 1.3703412711107943 1.3703412711107943 0.0 0.0 0.43861391052531945 0.8986756019241242
48_LT -0.7162713549396074 -1.7699442439585908 19.427574809042394 4.1110238133323795 1.3703412711107943 1.3703412711107943 0.0 0.0 0.43861391052531945 0.8986756019241242
57_T 54.18035933245483 -2.586093244627513 50.606862531410464 4.40910667312985 1.469702224376615 1.469702224376615 0.0 0.0 0.6906372933410847 0.7232013060320761
67_L -0.6350003928759165 16.438930876007966 12.446231045525623 4.635166406300065 1.5450554687666949 1.5450554687666949 0.0 -0.0 0.7991221049958454 0.6011687461162707
70_L -3.3093269891434502 50.58040034962414 25.205792620703075 4.728802978954348 1.5762676596514358 1.5762676596514358 0.0 -0.0 0.9226100212719841 0.3857340387475665
75_RT 61.4261816640328 1.7102178935188515 32.10085308725809 4.824331135851739 1.6081103786172497 1.6081103786172497 0.0 0.0 0.6669694181073614 0.7450850926636016
75_LB 0.5261816640327966 62.61021789351885 32.10085308725809 4.824331135851739 1.6081103786172497 1.6081103786172497 0.0 0.0 0.6669694181073614 0.7450850926636016
75_RB 61.4261816640328 62.61021789351885 32.10085308725809 4.824331135851739 1.6081103786172497 1.6081103786172497 0.0 0.0 0.6669694181073614 0.7450850926636016
76_L -2.4050475491350483 10.945953605203298 26.11000955372784 4.872816469836363 1.6242721566121414 1.6242721566121414 0.0 0.0 0.4849872773235938 0.8745212066235144
82_F 11.437009990973735 20.02498114977799 -1.577688638768457 5.021215824466275 1.6737386081554113 1.6737386081554113 0.0 0.0 0.3480344086077516 0.937481760049257
90_T 14.91154952690336 -1.7546042815070777 47.99872645525789 5.22613552964982 1.7420451765499212 1.7420451765499212 0.0 -0.0 0.7664413141092511 0.642314340511314