ITEM: TIMESTEP
618
ITEM: NUMBER OF ATOMS
253
ITEM: BOX BOUNDS ff ff ff
0 60.9
60.9 0
60.9 0
ITEM: ATOMS id x y z AsphericalShapeX AsphericalShapeY AsphericalShapeZ OrientationX OrientationY OrientationZ OrientationW
1 44.44796926602073 49.724164566648604 21.911111307822658 4.369390411911618 1.456463470637211 1.456463470637211 0.0 -0.0 0.7863642711635499 0.6177630881150306
2 5.372646570918743 20.382173445415 21.807033807603744 4.413303515607276 1.471101171869062 1.471101171869062 0.0 -0.0 0.8896314041555925 0.4566792799549252
3 19.54736728210415 12.86969014843329 55.42799586720491 4.457657953332184 1.485885984444095 1.485885984444095 0.0 0.0 0.631512325711268 0.7753658378305981
4 16.558844961379762 39.19100812907388 44.71074329889555 4.502458160567309 1.5008193868557846 1.5008193868557846 0.0 0.0 0.5765741652112841 0.8170448164029381
5 40.809401104151675 33.242653885608824 21.082739923012976 4.547708617370511 1.5159028724568413 1.5159028724568413 0.0 -0.0 0.8873914294477543 0.4610167577677315
6 24.81370411006725 14.489873270794217 24.56556887949658 4.593413848825192 1.5311379496084034 1.5311379496084034 0.0 0.0 0.643710445538684 0.7652691437033046
7 19.74365863876369 57.57499108250165 37.43447466908586 4.639578425492593 1.5465261418308545 1.5465261418308545 0.0 -0.0 0.7603958793842515 0.6494598575858641
8 41.687193601837976 36.67423331905047 14.664630011346679 4.686206963868855 1.5620689879563179 1.5620689879563179 0.0 -0.0 0.7854601334426244 0.6189122545016335
9 52.14836168606034 5.385588041871201 52.67406539777431 4.733304126846788 1.5777680422822642 1.5777680422822642 0.0 -0.0 0.7176002965020949 0.6964551776389529
10 46.79437652672268 14.998552521104141 12.669828217659967 4.780874624181789 1.5936248747272672 1.5936248747272672 0.0 0.0 0.38534345666417513 0.9227732226317065
11 19.596175054420314 35.49333912876704 60.640878826154356 4.828923212963248 1.6096410709877607 1.6096410709877607 0.0 0.0 0.49983922045674145 0.866118209999765
12 12.835188164170367 17.05851096584476 24.526279488120657 4.877454698090072 1.6258182326967248 1.6258182326967248 0.0 0.0 0.2746680171135514 0.9615391205639581
13 8.603727679780546 47.42854743736483 15.658814044532242 4.92647393275142 1.6421579775837967 1.6421579775837967 0.0 -0.0 0.7886508549344257 0.614841303924191
14 7.557319020692624 27.861926754283147 24.31790837251375 4.975985818911321 1.658661939637093 1.658661939637093 0.0 -0.0 0.7750680292508737 0.6318777967559605
15 26.769182721107914 45.11953681759089 20.005174016717284 5.025995307799802 1.6753317692666385 1.6753317692666385 0.0 0.0 0.6340811782098568 0.7732664866913604
16 18.658979413177075 31.784651755304818 51.140300066249694 5.076507400407563 1.69216913346916 1.69216913346916 0.0 -0.0 0.7629176367612683 0.6464956918020424
17 19.24606081419845 24.3072464722453 34.323678276775816 5.127527147985632 1.7091757159951864 1.7091757159951864 0.0 0.0 0.6579222258448839 0.7530858813836
18 37.3169307485466 28.796264273805928 15.897930312693928 5.179059652551444 1.726353217517144 1.726353217517144 0.0 0.0 0.506211649243881 0.8624092799650234
19 14.976624041455032 11.513566146705879 37.434376024464974 5.231110067398479 1.7437033557994859 1.7437033557994859 0.0 0.0 0.6434542777811493 0.7654845474633303
20 30.54026927357953 52.85440978466148 35.22317523660783 5.283683597611487 1.7612278658705225 1.7612278658705225 0.0 -0.0 0.7861857262579329 0.6179902942832407
21 46.33560842450178 16.055895618744945 45.098875411576365 5.336785500587337 1.7789285001957689 1.7789285001957689 0.0 0.0 0.6069811502172251 0.7947162281474907
22 19.31529076233441 12.358540910722956 30.11186132708238 5.39042108656059 1.7968070288535178 1.7968070288535178 0.0 -0.0 0.8910647246123514 0.45387625687131333
23 41.00977595223485 59.83514797992247 46.011570829392134 5.444595719134552 1.814865239711555 1.814865239711555 0.0 -0.0 0.7582829367961579 0.651925599868416
24 26.465712813432688 6.084584098190875 47.59863206148125 5.49931481581759 1.8331049386058722 1.8331049386058722 0.0 0.0 0.5255054740936084 0.8507902189715464
25 14.714651919697786 1.4971843832411298 51.92221055462572 5.55458384856513 1.8515279495216808 1.8515279495216808 0.0 0.0 0.6637035342538496 0.7479957343587923
26 2.2863406364619063 44.76655272275721 29.275646504227197 5.610408344326162 1.8701361147753905 1.8701361147753905 0.0 0.0 0.5361151400853296 0.8441448670526212
27 4.960492334826575 30.385982607894242 31.758499083624535 5.666793885597054 1.888931295199003 1.888931295199003 0.0 -0.0 0.7297620279401082 0.6837012378054764
28 18.007022322859928 34.098022391926634 30.111027500435725 5.7237461109788565 1.907915370326254 1.907915370326254 0.0 -0.0 0.9828164757017253 0.18458541407500267
29 45.00515687377185 31.66146301450879 30.38895783174001 5.7812707157415675 1.9270902385805382 1.9270902385805382 0.0 -0.0 0.8740853421614372 0.4857723897243679
30 19.936973329331803 60.025826517754865 26.79837000554956 5.839373452393571 1.946457817464539 1.946457817464539 0.0 -0.0 0.8433777540022546 0.5373210995802349
31 60.12081621426741 41.50933292693313 31.96587854593278 5.898060131256904 1.9660200437523463 1.9660200437523463 0.0 0.0 0.6952778540174372 0.7187410560924617
32 54.94100268256998 36.72779624206407 32.14036950624233 5.95733662104857 1.985778873682871 1.985778873682871 0.0 0.0 0.6353234605105568 0.7722461398575527
33 29.87471400785909 26.079605996197607 25.16360708313991 6.01720884946676 2.0057362831555525 2.0057362831555525 0.0 0.0 0.6411270229476993 0.7674347792784871
34 20.371948049407038 20.633242105124417 21.275139053963695 6.077682803784133 2.0258942679280905 2.0258942679280905 0.0 -0.0 0.7453722743584635 0.6666484625480594
35 20.995832671821915 48.20524215455766 41.57386787019005 6.138764531446743 2.0462548438156163 2.0462548438156163 0.0 -0.0 0.7109313362059317 0.7032614273514853
36 40.84989993264366 6.556384468798614 59.34149232813624 6.2004601406781275 2.0668200468927553 2.0668200468927553 0.0 -0.0 0.739632735620696 0.6730107104632479
37 26.11862170509075 51.501722549273794 23.55872328170023 6.262775801090797 2.087591933696947 2.087591933696947 0.0 0.0 0.5163603530767541 0.8563714064414165
38 16.41091063880072 17.555407675305396 17.260647295330823 6.325717744302415 2.1085725814341014 2.1085725814341014 0.0 0.0 0.5145463711011363 0.8574625542766586
39 9.080433136781911 39.322324175768244 23.334362105639272 6.389292264559889 2.1297640881866298 2.1297640881866298 0.0 0.0 0.5880831456971182 0.8088004783300898
40 59.424612281682684 21.1875995193249 14.787155778811945 6.45350571936838 2.151168573122772 2.151168573122772 0.0 -0.0 0.8608342640850161 0.5088854191045453
41 10.492229658740484 20.74983302732937 28.92480887101661 6.518364530126594 2.172788176708855 2.172788176708855 0.0 0.0 0.5813114541301716 0.8136811373609846
42 11.661587801150013 0.5105132684751474 38.81626532808097 6.5838751827697815 2.194625060923296 2.194625060923296 0.0 0.0 0.6858728758951139 0.7277213739552836
43 60.04951970733655 40.96752966876509 43.67896039867548 6.650044228418067 2.2166814094726632 2.2166814094726632 0.0 -0.0 0.8971229945165649 0.4417808650333688
44 41.64597225182196 19.3381379561259 26.64943788461681 6.716878284030712 2.2389594280102214 2.2389594280102214 0.0 -0.0 0.7662793896249596 0.6425075073771507
45 46.37209439638909 53.231360945575766 43.69292153721948 6.784384033069339 2.2614613443564076 2.2614613443564076 0.0 -0.0 0.8021859139948743 0.5970743332184094
46 14.854712745831609 47.082767825013285 14.841493304665955 6.852568226164672 2.2841894087215957 2.2841894087215957 0.0 0.0 0.6689296931602822 0.7433256793683982
47 47.61951164621622 23.853785797708017 16.00536404608264 6.921437681793368 2.3071458939311227 2.3071458939311227 0.0 -0.0 0.8121614142020023 0.5834328044268712
48 0.14632964826954 46.68489378517688 13.765208978612035 6.990999286958091 2.3303330956526978 2.3303330956526978 0.0 0.0 0.43861391052531945 0.8986756019241242
49 25.80475354010815 3.0580215472563665 5.976386497118792 7.0612599978772685 2.3537533326257583 2.3537533326257583 0.0 -0.0 0.7611420715427216 0.6485851886434459
50 25.869973823477494 19.336237717486448 59.87527363718151 7.132226840680744 2.3774089468935506 2.3774089468935506 0.0 0.0 0.5689873473401131 0.8223462765568174
51 46.15516790504481 23.870476091587502 39.629118036738625 7.203906912111799 2.4013023040372556 2.4013023040372556 0.0 -0.0 0.9816329176571261 0.1907794930592849
52 31.74942144226879 10.368431698810433 18.555119349631777 7.276307380237352 2.4254357934124138 2.4254357934124138 0.0 -0.0 0.8312938914163103 0.5558331279205367
53 6.834648019824809 60.48134891951825 6.615707945011671 7.349435485164325 2.4498118283881616 2.4498118283881616 0.0 0.0 0.4937832216878833 0.8695850332081013
54 38.01619769441868 47.394358872606205 40.153314504721024 7.423298539764549 2.47443284658818 2.47443284658818 0.0 -0.0 0.7425013715714329 0.6698445440656666
55 24.321541070013375 42.26255877252097 14.47822382722256 7.423298539764549 2.47443284658818 2.47443284658818 0.0 -0.0 0.899222239431846 0.4374921303419936
56 40.841086228327285 6.910755517323392 18.473035989415678 7.497903930404881 2.499301310134967 2.499301310134967 0.0 0.0 0.591041689671776 0.8066410112744902
57 53.58238443594963 59.38077372997458 56.23144563712007 7.497903930404881 2.499301310134967 2.499301310134967 0.0 0.0 0.6906372933410847 0.7232013060320761
58 26.824772348857778 37.39811145716233 33.65085867012046 7.573259117686462 2.524419705895484 2.524419705895484 0.0 -0.0 0.9778925487455288 0.20910801779935065
59 37.8938815626989 57.65828116341487 21.411124837044014 7.573259117686462 2.524419705895484 2.524419705895484 0.0 -0.0 0.8334397726994561 0.5526103014626843
60 53.732710845170004 27.28689533791779 52.84527809334042 7.649371637191083 2.5497905457303176 2.5497905457303176 0.0 -0.0 0.8251393648538317 0.5649292243888745
61 5.676322046482004 5.790162263737719 41.08510145048948 7.649371637191083 2.5497905457303176 2.5497905457303176 0.0 -0.0 0.8342848482439009 0.5513336485202505
62 18.29335958958248 8.483991889316586 41.69876006591918 7.726249100233697 2.575416366744524 2.575416366744524 0.0 0.0 0.6993489688984815 0.7147803996337831
63 35.51365809859581 4.894889469878566 50.758198447919796 7.726249100233697 2.575416366744524 2.575416366744524 0.0 0.0 0.6638694557235675 0.747848477806363
64 42.9909673692567 34.51137869388572 47.308813961922716 7.803899194624964 2.601299731541646 2.601299731541646 0.0 0.0 0.5469534661185369 0.8371630103515794
65 16.356722084563277 28.59651361435072 6.744564052374838 7.803899194624964 2.601299731541646 2.601299731541646 0.0 0.0 0.534266604389083 0.8453160328744268
66 23.271174755865495 51.2947675347717 30.91751707229508 7.88232968543875 2.6274432284796276 2.6274432284796276 0.0 0.0 0.49259387534365895 0.8702593142126752
67 52.6036911695984 11.595749003295127 10.345762602408424 7.88232968543875 2.6274432284796276 2.6274432284796276 0.0 -0.0 0.7991221049958454 0.6011687461162707
68 37.7288064091475 21.40348756370784 23.41387622505993 7.961548415790062 2.6538494719300307 2.6538494719300307 0.0 -0.0 0.8113628171424923 0.5845428803420658
69 34.54457365723536 13.001952487859544 57.0514614105259 7.961548415790062 2.6538494719300307 2.6538494719300307 0.0 0.0 0.69974083585519 0.7143967823532522
70 12.976808177619155 60.18243281800956 17.4387782317388 8.041563307617436 2.680521102539149 2.680521102539149 0.0 -0.0 0.9226100212719841 0.3857340387475665
71 12.74864782039134 2.9001828532041776 24.07188024629354 8.041563307617436 2.680521102539149 2.680521102539149 0.0 -0.0 0.8908476943010929 0.4543020862360491
72 7.331719308654611 41.884715933353256 7.751423002704838 8.12238236247682 2.7074607874923085 2.7074607874923085 0.0 -0.0 0.9180976465577227 0.39635427509384946
73 40.31371900600198 33.72772642250956 27.65940732788939 8.12238236247682 2.7074607874923085 2.7074607874923085 0.0 0.0 0.6852526383261238 0.7283054453092375
74 40.41699218871501 16.267634854955002 13.816333412469607 8.204013662341298 2.7346712207804362 2.7346712207804362 0.0 0.0 0.6622208999947843 0.7493086677799063
75 49.64417495571344 36.32187757253667 47.41470630908043 8.204013662341298 2.7346712207804362 2.7346712207804362 0.0 0.0 0.6669694181073614 0.7450850926636016
76 1.308885115660166 15.195246976945702 29.915870994171904 8.286465370408523 2.7621551234695656 2.7621551234695656 0.0 0.0 0.4849872773235938 0.8745212066235144
77 13.350379241183502 43.16125878029503 20.81522334720625 8.286465370408523 2.7621551234695656 2.7621551234695656 0.0 -0.0 0.724549744492829 0.6892225096116464
78 1.9026496950177423 11.687330307649795 13.34696649973188 8.36974573191837 2.7899152439727817 2.7899152439727817 0.0 0.0 0.646327957303847 0.7630597431442944
79 2.071718010290401 22.93501952708047 27.98460754008456 8.36974573191837 2.7899152439727817 2.7899152439727817 0.0 0.0 0.4210348644808628 0.9070444547493698
80 3.0854334645086006 8.984063307383497 22.94754304463973 8.453863074976235 2.817954358325387 2.817954358325387 0.0 0.0 0.5786941501693628 0.8155446527074768
81 54.136716479891085 51.54959726523877 27.844595758803155 8.453863074976235 2.817954358325387 2.817954358325387 0.0 0.0 0.683142879342022 0.730284743373632
82 10.425442892818756 4.216986937967192 5.679391673329009 8.538825811386367 2.846275270462083 2.846275270462083 0.0 0.0 0.3480344086077516 0.937481760049257
83 15.025183886243093 42.9626474194405 2.4064428335429415 8.538825811386367 2.846275270462083 2.846275270462083 0.0 -0.0 0.8280938516825816 0.560589486884571
84 34.93243942783422 23.123914620817246 5.701199248712211 8.62464243749329 2.8748808124977994 2.8748808124977994 0.0 -0.0 0.8521868438699086 0.5232375972109076
85 19.894028224818832 44.18916161222974 27.0307727500211 8.62464243749329 2.8748808124977994 2.8748808124977994 0.0 0.0 0.2683204071818837 0.9633297250109892
86 8.039999718732394 0.9187369663079695 57.501815431373544 8.711321535031304 2.9037738450104276 2.9037738450104276 0.0 0.0 0.5717525694490604 0.8204261083902665
87 8.295825401708669 57.17335288784705 45.626748462946715 8.711321535031304 2.9037738450104276 2.9037738450104276 0.0 -0.0 0.7407334016199733 0.6717990977401677
88 34.30521161232307 46.26643061866662 55.74449868362692 8.798871771982384 2.932957257327426 2.932957257327426 0.0 0.0 0.6524446383875427 0.7578363898885753
89 37.77120259793077 24.42557054164889 47.24472810931371 8.798871771982384 2.932957257327426 2.932957257327426 0.0 0.0 0.3815125934194192 0.9243636411404275
90 19.666158259109366 19.127988574618783 51.44717794315258 8.887301903443046 2.962433967814318 2.962433967814318 0.0 -0.0 0.7664413141092511 0.642314340511314
91 28.68018301370038 59.15892857247909 27.37235156331684 8.887301903443046 2.962433967814318 2.962433967814318 0.0 -0.0 0.7164030651197486 0.6976866404676452
92 50.311108836282365 16.984990162289435 34.26023492486929 8.976620772499984 2.992206924166639 2.992206924166639 0.0 0.0 0.3159382626609752 0.9487797500931208
93 16.40372191949702 33.79253868336822 36.89464881898912 8.976620772499984 2.992206924166639 2.992206924166639 0.0 -0.0 0.807675111463051 0.5896277760783901
94 51.43864820423817 15.786727559796704 47.36540431390117 9.066837311114753 3.022279103704926 3.022279103704926 0.0 0.0 0.5856043209472178 0.8105970511221638
95 39.334353659928475 60.82427459519561 54.48285283903579 9.066837311114753 3.022279103704926 3.022279103704926 0.0 -0.0 0.8283891439806925 0.5601530381377355
96 44.79450620385173 8.486724511308228 40.502643276199294 9.157960541016468 3.0526535136721935 3.0526535136721935 0.0 0.0 0.6380161188650698 0.7700230074928626
97 28.43277466804215 56.20287781482874 19.52170811760528 9.157960541016468 3.0526535136721935 3.0526535136721935 0.0 0.0 0.5652655734899162 0.8249089837231233
98 18.498906221292827 22.090221677074126 40.17628038733346 9.249999574603907 3.083333191534596 3.083333191534596 0.0 -0.0 0.9884337224668884 0.15165347437579585
99 47.178601145275465 42.23905614020551 7.311344164105954 9.249999574603907 3.083333191534596 3.083333191534596 0.0 0.0 0.644584962479319 0.7645326848117973
100 28.12450070596674 33.68622383021459 56.22583823659596 9.342963615857172 3.114321205285764 3.114321205285764 0.0 -0.0 0.7665764345255346 0.6421530736748979
101 14.883538880361126 24.281240003052236 0.32510943765256717 9.342963615857172 3.114321205285764 3.114321205285764 0.0 -0.0 0.7486465484609144 0.6629693397718779
102 40.662723617685884 41.52412130830028 9.684942498706036 9.436861961257788 3.1456206537526423 3.1456206537526423 0.0 -0.0 0.764238184631255 0.644934102952793
103 25.33334315881086 45.14170700658869 60.45032517775383 9.436861961257788 3.1456206537526423 3.1456206537526423 0.0 -0.0 0.7262700822056904 0.6874094614514261
104 50.57736592741095 59.82070997438065 50.37585595176896 9.531704000718808 3.177234666906205 3.177234666906205 0.0 0.0 0.6864264585310771 0.7271992278794606
105 24.543708412623925 50.9486424762714 11.06647860875924 9.531704000718808 3.177234666906205 3.177234666906205 0.0 -0.0 0.8498704758576332 0.5269916263713497
106 12.914314079653844 13.263850138293826 48.19324687732256 9.6274992185227 3.209166406174265 3.209166406174265 0.0 -0.0 0.793590538753224 0.6084521811953406
107 39.326032961700896 47.55843661605134 19.54790276959297 9.6274992185227 3.209166406174265 3.209166406174265 0.0 -0.0 0.8299364941277125 0.5578578812878792
108 54.73677353437577 43.34124507869282 58.36233478547833 9.724257194271596 3.241419064757168 3.241419064757168 0.0 -0.0 0.7596155095013813 0.650372414640225
109 59.74869393267132 38.59732045756461 4.6852385683193765 9.724257194271596 3.241419064757168 3.241419064757168 0.0 -0.0 0.746179639226726 0.6657446552571586
110 46.01037623351451 15.779233047442887 52.05784156345372 9.821987603843414 3.273995867947775 3.273995867947775 0.0 -0.0 0.7434755474029917 0.6687631198068729
111 31.93137021289025 40.83067685503318 26.94404191466541 9.821987603843414 3.273995867947775 3.273995867947775 0.0 -0.0 0.7635489887521677 0.6457499065238353
112 51.73529941401781 0.0684039706975765 18.154113473178334 9.920700220360638 3.3069000734536096 3.3069000734536096 0.0 -0.0 0.925703395166632 0.3782502137170186
113 18.44010679312459 9.083882827188015 12.481102867880027 9.920700220360638 3.3069000734536096 3.3069000734536096 0.0 -0.0 0.7476030998596368 0.6641457709571461
114 7.019759827158131 3.543123373147408 33.81321745500913 10.020404915167356 3.340134971722416 3.340134971722416 0.0 -0.0 0.7095009508808979 0.7047044775642494
115 28.46290302153073 14.973972097853682 52.65490340225871 10.020404915167356 3.340134971722416 3.340134971722416 0.0 0.0 0.692332939305712 0.7215782016887105
116 13.480984244143286 31.296857351324086 55.634296731613 10.121111658815739 3.373703886271924 3.373703886271924 0.0 0.0 0.4838188577050026 0.8751681626573412
117 51.715734630680835 37.745992423364456 26.458627195493968 10.121111658815739 3.373703886271924 3.373703886271924 0.0 0.0 0.4072390243389004 0.9133216175343166
118 47.73632173596563 18.428900144421 60.712004040342386 10.222830522064292 3.4076101740214324 3.4076101740214324 0.0 -0.0 0.9854258972554679 0.17010526452245991
119 38.71525138116104 29.07673664037692 59.665120436901304 10.222830522064292 3.4076101740214324 3.4076101740214324 0.0 0.0 0.693566054094668 0.720393037589587
120 28.021798953563156 24.625019193544674 31.13281905121148 10.32557167688429 3.441857225628057 3.441857225628057 0.0 -0.0 0.8546373086497397 0.5192254526349123
121 0.4283908350350643 38.367553432990135 57.35688794461034 10.32557167688429 3.441857225628057 3.441857225628057 0.0 -0.0 0.738138054050796 0.6746496966293722
122 56.782766037405615 27.151233142427404 0.09472355234794728 10.429345397476478 3.476448465825505 3.476448465825505 0.0 0.0 0.30497028615780525 0.9523618663936657
123 42.65667944909183 41.48194404062078 53.22694308894626 10.429345397476478 3.476448465825505 3.476448465825505 0.0 -0.0 0.8240326158671573 0.5665423620411186
124 7.779640275615446 48.09208133043435 0.11001400971002472 10.534162061299702 3.51138735376656 3.51138735376656 0.0 -0.0 0.7351480847541838 0.6779065521753388
125 0.08461702561207574 58.40451011056977 53.046455569852185 10.534162061299702 3.51138735376656 3.51138735376656 0.0 0.0 0.6354145425399089 0.7721711980699606
126 32.587560084920256 0.4819574827966253 43.79715133780557 10.640032150107455 3.546677383369175 3.546677383369175 0.0 -0.0 0.9631928649301144 0.2688112812880415
127 58.016429185972854 21.41412699214914 42.17115478286647 10.640032150107455 3.546677383369175 3.546677383369175 0.0 0.0 0.6645731125154195 0.7472232451694524
128 8.212023497104814 49.56688128506032 52.72028753303861 10.746966250996788 3.5823220836655945 3.5823220836655945 0.0 -0.0 0.837305869343264 0.5467347447925007
129 32.20224849928948 60.6171403549443 13.539176854071725 10.746966250996788 3.5823220836655945 3.5823220836655945 0.0 0.0 0.6718759690179156 0.7406636768846148
130 32.67606979537711 40.89655250726476 14.792396530758639 10.854975057467295 3.6183250191557557 3.6183250191557557 0.0 -0.0 0.8172568989423515 0.5762735124323614
131 3.0396986056055524 29.642613218175487 40.05885736981363 10.854975057467295 3.6183250191557557 3.6183250191557557 0.0 0.0 0.5650588956672867 0.8250505708302167
132 26.007921870652783 60.55396152989018 54.12409440665769 10.964069370489323 3.6546897901631303 3.6546897901631303 0.0 0.0 0.5632303093681869 0.8262999568008076
133 10.755285852844919 44.877293334777065 35.02300783560274 10.964069370489323 3.6546897901631303 3.6546897901631303 0.0 0.0 0.7047758212396541 0.7094300823872436
134 0.33953477012552113 33.66417644018667 49.06453615485839 11.074260099585052 3.6914200331950076 3.6914200331950076 0.0 -0.0 0.7457546235329385 0.6662207152882933
135 41.423140613827734 50.44941225844979 0.17178762175947976 11.074260099585052 3.6914200331950076 3.6914200331950076 0.0 0.0 0.5807371118896761 0.8140911539097067
136 20.613419854915985 5.307806079584328 0.17707474693856629 11.185558263919377 3.728519421306477 3.728519421306477 0.0 -0.0 0.7765636880913803 0.6300387593933514
137 3.8065962834576266 47.52999505007628 20.677734186570756 11.185558263919377 3.728519421306477 3.728519421306477 0.0 -0.0 0.9207785641385271 0.39008567754147583
138 52.848811287355815 15.797772372100022 25.99129104381224 11.297974993401482 3.765991664467128 3.765991664467128 0.0 0.0 0.5933031767685688 0.8049790931672228
139 8.098300680428954 11.86353714337673 60.010245605902604 11.297974993401482 3.765991664467128 3.765991664467128 0.0 0.0 0.36293328461656904 0.9318151270061183
140 59.911175333430165 59.178941622211035 39.280126459936874 11.411521529798122 3.803840509932701 3.803840509932701 0.0 0.0 0.5657838974393875 0.8245535649054563
141 19.372177115777784 46.27739569761498 54.65636882662179 11.411521529798122 3.803840509932701 3.803840509932701 0.0 0.0 0.5898626798291705 0.8075035720941112
142 6.85506357025822 18.504413719843477 8.453394077779462 11.526209227856947 3.8420697426190435 3.8420697426190435 0.0 0.0 0.494526605223718 0.8691624915548904
143 31.000620708859582 60.2479252450299 0.31983116076733475 11.526209227856947 3.8420697426190435 3.8420697426190435 0.0 0.0 0.6621201748514545 0.7493976741721844
144 10.284690991920602 27.585744017110486 45.97433861195721 11.642049556444013 3.880683185481402 3.880683185481402 0.0 -0.0 0.8358120424685423 0.5490156916378287
145 8.257280095480045 27.00429120975956 16.11303518066104 11.642049556444013 3.880683185481402 3.880683185481402 0.0 -0.0 0.7380766977143534 0.6747168208152773
146 20.77532254883858 55.92647237937332 47.987585676533236 11.759054099688395 3.9196846998961905 3.9196846998961905 0.0 0.0 0.5600689403365469 0.8284460043179022
147 38.50798315222831 20.329836487478055 34.14121278753614 11.759054099688395 3.9196846998961905 3.9196846998961905 0.0 -0.0 0.8053653384335279 0.5927787712543771
148 60.453940678896394 17.759320894544707 53.65919268577787 11.877234558142211 3.9590781860474324 3.9590781860474324 0.0 -0.0 0.9475491048281723 0.31961022189430877
149 45.912246393564025 58.7576007437616 25.88417594093999 11.877234558142211 3.9590781860474324 3.9590781860474324 0.0 -0.0 0.8855269061838191 0.46458809543994295
150 17.097045938069787 31.908642763357896 22.486546027106723 11.996602749949426 3.9988675833164775 3.9988675833164775 0.0 -0.0 0.8997163709941051 0.43647502994466686
151 31.17380661499073 31.923450278094105 41.00649327968315 11.996602749949426 3.9988675833164775 3.9988675833164775 0.0 0.0 0.6949034215940625 0.7191030765174521
152 56.17920924176258 2.650264370478879 0.12637489793198012 12.117170612028877 4.03905687067627 4.03905687067627 0.0 0.0 0.6496096252583186 0.7602679361723385
153 31.944551547057674 40.542127640239634 5.699094837373127 12.117170612028877 4.03905687067627 4.03905687067627 0.0 0.0 0.6980264017745981 0.7160720232110785
154 38.01843975050024 15.921744414873267 6.202792959148777 12.238950201266972 4.079650067088958 4.079650067088958 0.0 -0.0 0.9126309719920443 0.4087844284716046
155 23.428529025528036 32.87179700805919 8.753197748054237 12.238950201266972 4.079650067088958 4.079650067088958 0.0 0.0 0.34897032679986184 0.9371337743423815
156 32.159358266155536 45.88542812397974 48.898725030088144 12.361953695724651 4.120651231908129 4.120651231908129 0.0 0.0 0.6995675014656925 0.7145665195718649
157 25.011963786293816 30.77429459383995 46.96624070301279 12.361953695724651 4.120651231908129 4.120651231908129 0.0 0.0 0.63565327495599 0.7719746848425306
158 49.84930252691302 0.020165710820634786 36.08316093628132 12.486193395853476 4.162064465284455 4.162064465284455 0.0 -0.0 0.7426985308561326 0.6696259345814963
159 23.4873001705842 22.526036053462697 14.539359857133215 12.486193395853476 4.162064465284455 4.162064465284455 0.0 0.0 0.4891044501540252 0.8722252213961303
160 47.30847353864709 0.6035677981408103 1.7835245330794969 12.611681725726985 4.20389390857569 4.20389390857569 0.0 0.0 0.6466947184788655 0.7627489371290798
161 29.756778647661793 9.24278097351897 36.35556293011079 12.611681725726985 4.20389390857569 4.20389390857569 0.0 0.0 0.6377575578887067 0.7702371695496348
162 59.98312967445371 0.7753378494679075 8.38191374949663 12.738431234282663 4.246143744760859 4.246143744760859 0.0 0.0 0.6701572236966805 0.7422191694689361
163 40.13608916578714 1.7832403737375513 32.857699667443974 12.738431234282663 4.246143744760859 4.246143744760859 0.0 -0.0 0.7797338016261434 0.6261111711203069
164 43.143988393457995 43.8281873421803 33.9258751542755 12.866454596577451 4.2888181988591505 4.2888181988591505 0.0 0.0 0.6966086930688543 0.7174512727293072
165 60.31478357168404 32.3739146265395 17.224642857344293 12.866454596577451 4.2888181988591505 4.2888181988591505 0.0 -0.0 0.8994069955971553 0.43711217813153935
7_T 19.74365863876369 -3.3250089174983515 37.43447466908586 4.639578425492593 1.5465261418308545 1.5465261418308545 0.0 -0.0 0.7603958793842515 0.6494598575858641
11_F 19.596175054420314 35.49333912876704 -0.25912117384564226 4.828923212963248 1.6096410709877607 1.6096410709877607 0.0 0.0 0.49983922045674145 0.866118209999765
23_T 41.00977595223485 -1.0648520200775309 46.011570829392134 5.444595719134552 1.814865239711555 1.814865239711555 0.0 -0.0 0.7582829367961579 0.651925599868416
25_B 14.714651919697786 62.397184383241125 51.92221055462572 5.55458384856513 1.8515279495216808 1.8515279495216808 0.0 0.0 0.6637035342538496 0.7479957343587923
26_R 63.18634063646191 44.76655272275721 29.275646504227197 5.610408344326162 1.8701361147753905 1.8701361147753905 0.0 0.0 0.5361151400853296 0.8441448670526212
30_T 19.936973329331803 -0.8741734822451335 26.79837000554956 5.839373452393571 1.946457817464539 1.946457817464539 0.0 -0.0 0.8433777540022546 0.5373210995802349
31_L -0.7791837857325916 41.50933292693313 31.96587854593278 5.898060131256904 1.9660200437523463 1.9660200437523463 0.0 0.0 0.6952778540174372 0.7187410560924617
36_F 40.84989993264366 6.556384468798614 -1.558507671863758 6.2004601406781275 2.0668200468927553 2.0668200468927553 0.0 -0.0 0.739632735620696 0.6730107104632479
40_L -1.4753877183173145 21.1875995193249 14.787155778811945 6.45350571936838 2.151168573122772 2.151168573122772 0.0 -0.0 0.8608342640850161 0.5088854191045453
42_B 11.661587801150013 61.41051326847514 38.81626532808097 6.5838751827697815 2.194625060923296 2.194625060923296 0.0 0.0 0.6858728758951139 0.7277213739552836
43_L -0.8504802926634483 40.96752966876509 43.67896039867548 6.650044228418067 2.2166814094726632 2.2166814094726632 0.0 -0.0 0.8971229945165649 0.4417808650333688
48_R 61.04632964826954 46.68489378517688 13.765208978612035 6.990999286958091 2.3303330956526978 2.3303330956526978 0.0 0.0 0.43861391052531945 0.8986756019241242
49_B 25.80475354010815 63.958021547256365 5.976386497118792 7.0612599978772685 2.3537533326257583 2.3537533326257583 0.0 -0.0 0.7611420715427216 0.6485851886434459
50_F 25.869973823477494 19.336237717486448 -1.024726362818491 7.132226840680744 2.3774089468935506 2.3774089468935506 0.0 0.0 0.5689873473401131 0.8223462765568174
53_T 6.834648019824809 -0.4186510804817516 6.615707945011671 7.349435485164325 2.4498118283881616 2.4498118283881616 0.0 0.0 0.4937832216878833 0.8695850332081013
56_B 40.841086228327285 67.81075551732339 18.473035989415678 7.497903930404881 2.499301310134967 2.499301310134967 0.0 0.0 0.591041689671776 0.8066410112744902
57_T 53.58238443594963 -1.5192262700254204 56.23144563712007 7.497903930404881 2.499301310134967 2.499301310134967 0.0 0.0 0.6906372933410847 0.7232013060320761
59_T 37.8938815626989 -3.241718836585129 21.411124837044014 7.573259117686462 2.524419705895484 2.524419705895484 0.0 -0.0 0.8334397726994561 0.5526103014626843
61_B 5.676322046482004 66.69016226373772 41.08510145048948 7.649371637191083 2.5497905457303176 2.5497905457303176 0.0 -0.0 0.8342848482439009 0.5513336485202505
63_B 35.51365809859581 65.79488946987857 50.758198447919796 7.726249100233697 2.575416366744524 2.575416366744524 0.0 0.0 0.6638694557235675 0.747848477806363