ITEM: TIMESTEP
168
ITEM: NUMBER OF ATOMS
190
ITEM: BOX BOUNDS ff ff ff
0 60.9
60.9 0
60.9 0
ITEM: ATOMS id x y z AsphericalShapeX AsphericalShapeY AsphericalShapeZ OrientationX OrientationY OrientationZ OrientationW
1 39.02789275241095 2.699931575955727 13.954596970249124 1.1929353467092998 0.3976451155697657 0.3976451155697657 0.0 -0.0 0.7863642711635499 0.6177630881150306
2 24.049892871649543 4.093144456930838 26.58195644530844 1.2049245462643365 0.4016415154214463 0.4016415154214463 0.0 -0.0 0.8896314041555925 0.4566792799549252
3 13.396452727463636 20.240550439768462 55.265394100347805 1.2170342392781122 0.4056780797593713 0.4056780797593713 0.0 0.0 0.631512325711268 0.7753658378305981
4 30.887427270343565 40.2423901803911 32.42048703798973 1.2292656367300079 0.4097552122433345 0.4097552122433345 0.0 0.0 0.5765741652112841 0.8170448164029381
5 3.858445610322085 20.221973065397016 33.40546103739241 1.2416199617699755 0.4138733205899891 0.4138733205899891 0.0 -0.0 0.8873914294477543 0.4610167577677315
6 27.337292468617292 18.664620206424473 20.682847641902015 1.2540984498407932 0.41803281661359815 0.41803281661359815 0.0 0.0 0.643710445538684 0.7652691437033046
7 52.52300158911592 3.1748390620348133 20.17783621837162 1.2667023488016935 0.42223411626723023 0.42223411626723023 0.0 -0.0 0.7603958793842515 0.6494598575858641
8 50.59674322667676 37.70385493427424 1.8207031159204026 1.279432919053059 0.42647763968435154 0.42647763968435154 0.0 -0.0 0.7854601334426244 0.6189122545016335
9 49.24307957787278 0.8495978348081414 59.546142114883274 1.292291433662524 0.43076381122084273 0.43076381122084273 0.0 -0.0 0.7176002965020949 0.6964551776389529
10 34.14741090789064 57.3632760305606 15.30738222194147 1.3052791784922697 0.43509305949742244 0.43509305949742244 0.0 0.0 0.38534345666417513 0.9227732226317065
11 26.491320561354303 59.53076528854214 0.441401644904588 1.3183974523276067 0.4394658174425364 0.4394658174425364 0.0 0.0 0.49983922045674145 0.866118209999765
12 15.131796964121644 55.910688057505524 17.470509881277476 1.331647567006841 0.44388252233561093 0.44388252233561093 0.0 0.0 0.2746680171135514 0.9615391205639581
13 25.48056367059999 53.36250978647926 46.9744767056113 1.3450308475524804 0.44834361585082666 0.44834361585082666 0.0 -0.0 0.7886508549344257 0.614841303924191
14 19.30289715218451 48.90749677486264 23.106300839769347 1.3585486323037441 0.45284954410124834 0.45284954410124834 0.0 -0.0 0.7750680292508737 0.6318777967559605
15 20.99396739659855 60.04096057826234 26.85271393445878 1.3722022730503647 0.4574007576834542 0.4574007576834542 0.0 0.0 0.6340811782098568 0.7732664866913604
16 19.57707089190244 38.74698806426451 47.65425597604754 1.3859931351677939 0.4619977117225979 0.4619977117225979 0.0 -0.0 0.7629176367612683 0.6464956918020424
17 35.44249508116201 44.16640952578672 41.282694153179875 1.399922597753738 0.46664086591791526 0.46664086591791526 0.0 0.0 0.6579222258448839 0.7530858813836
18 58.55475962813634 44.61434777546427 57.53909348576895 1.4139920537660677 0.47133068458869204 0.47133068458869204 0.0 0.0 0.506211649243881 0.8624092799650234
19 15.535878663466885 6.656160894356966 37.19782134955395 1.4282029101621012 0.4760676367207001 0.4760676367207001 0.0 0.0 0.6434542777811493 0.7654845474633303
20 14.522783101230855 52.488346043478025 59.758017362319045 1.4425565880393263 0.4808521960131086 0.4808521960131086 0.0 -0.0 0.7861857262579329 0.6179902942832407
21 33.6051534735846 29.04130137462443 44.903642338011494 1.4570545227774914 0.48568484092583053 0.48568484092583053 0.0 0.0 0.6069811502172251 0.7947162281474907
22 43.77024109325153 60.36635986029353 3.9542426320655535 1.471698164182141 0.4905660547273823 0.4905660547273823 0.0 -0.0 0.8910647246123514 0.45387625687131333
23 38.111448200041245 55.04425165861971 43.56577564545337 1.4864889766296405 0.4954963255432123 0.4954963255432123 0.0 -0.0 0.7582829367961579 0.651925599868416
24 23.09889450337841 0.00999636183367869 48.57881035210262 1.501428439213545 0.5004761464045132 0.5004761464045132 0.0 0.0 0.5255054740936084 0.8507902189715464
25 6.11172005193508 10.08443628813194 21.666466164556585 1.5165180458925567 0.5055060152975188 0.5055060152975188 0.0 0.0 0.6637035342538496 0.7479957343587923
26 55.21945839832522 25.032432020358634 3.797097994230506 1.5317593056399383 0.510586435213313 0.510586435213313 0.0 0.0 0.5361151400853296 0.8441448670526212
27 58.2910757491857 33.1914268964209 10.054955273777226 1.5471537425943493 0.5157179141981146 0.5157179141981146 0.0 -0.0 0.7297620279401082 0.6837012378054764
28 57.89006120510596 7.7204296053192305 34.55277809461176 1.5627028962123162 0.5209009654041049 0.5209009654041049 0.0 -0.0 0.9828164757017253 0.18458541407500267
29 43.02473866356708 38.121536141479346 24.138246784250423 1.5784083214221658 0.5261361071407197 0.5261361071407197 0.0 -0.0 0.8740853421614372 0.4857723897243679
30 15.821434361157603 12.928877407001124 32.60664957194088 1.594271588779499 0.531423862926497 0.531423862926497 0.0 -0.0 0.8433777540022546 0.5373210995802349
31 36.43927481680107 46.93559298342369 45.451065574043476 1.6102942846242763 0.536764761541423 0.536764761541423 0.0 0.0 0.6952778540174372 0.7187410560924617
32 17.895954659109044 44.33641509357144 46.39238188398794 1.62647801123943 0.5421593370798067 0.5421593370798067 0.0 0.0 0.6353234605105568 0.7722461398575527
33 30.142060159582307 12.633772174252714 20.891478812069767 1.6428243870111108 0.5476081290037027 0.5476081290037027 0.0 0.0 0.6411270229476993 0.7674347792784871
34 4.988670787812108 21.952565176185665 60.50130354220567 1.6593350465905168 0.5531116821968363 0.5531116821968363 0.0 -0.0 0.7453722743584635 0.6666484625480594
35 31.06330054745958 31.307761103428458 47.26704127294568 1.6760116410573582 0.5586705470191206 0.5586705470191206 0.0 -0.0 0.7109313362059317 0.7032614273514853
36 21.150811602550704 41.13007178632359 28.01353139040097 1.692855838085005 0.564285279361665 0.564285279361665 0.0 -0.0 0.739632735620696 0.6730107104632479
37 0.9133237247736338 46.80099625206984 57.11146262456529 1.709869322107171 0.5699564407023878 0.5699564407023878 0.0 0.0 0.5163603530767541 0.8563714064414165
38 6.34661679693104 13.017583387618725 23.484936299119873 1.727053794486435 0.5756845981621433 0.5756845981621433 0.0 0.0 0.5145463711011363 0.8574625542766586
39 11.391911067782443 22.119989184150675 59.28092310248099 1.7444109736843643 0.581470324561455 0.581470324561455 0.0 0.0 0.5880831456971182 0.8088004783300898
40 52.630777639012834 53.312869458026036 21.899957719230027 1.761942595433346 0.5873141984777828 0.5873141984777828 0.0 -0.0 0.8608342640850161 0.5088854191045453
41 0.4271763164094296 26.084151503918182 52.26806845904745 1.7796504129101687 0.5932168043033894 0.5932168043033894 0.0 0.0 0.5813114541301716 0.8136811373609846
42 51.29302783686476 13.56448012017075 30.407543723497394 1.7975361969113266 0.5991787323037755 0.5991787323037755 0.0 0.0 0.6858728758951139 0.7277213739552836
43 59.639080177280015 2.7637170893791096 32.13185823280018 1.815601736030129 0.6052005786767092 0.6052005786767092 0.0 -0.0 0.8971229945165649 0.4417808650333688
44 31.68208962368704 31.780263791218914 33.52909588348543 1.83384883683553 0.6112829456118436 0.6112829456118436 0.0 -0.0 0.7662793896249596 0.6425075073771507
45 37.435972455971736 9.150777287048431 13.41472058693631 1.8522793240528312 0.6174264413509429 0.6174264413509429 0.0 -0.0 0.8021859139948743 0.5970743332184094
46 12.657420213582748 49.56771806207897 17.470832509344074 1.8708950407461196 0.6236316802487067 0.6236316802487067 0.0 0.0 0.6689296931602822 0.7433256793683982
47 43.458328600597156 7.77130900876498 27.706014754870978 1.8896978485025515 0.6298992828341841 0.6298992828341841 0.0 -0.0 0.8121614142020023 0.5834328044268712
48 38.39610659312636 20.732582021671938 28.167462679937493 1.9086896276186012 0.636229875872868 0.636229875872868 0.0 0.0 0.43861391052531945 0.8986756019241242
49 19.643764433452695 30.051859910121753 1.0136521071860394 1.9278722772879793 0.6426240924293267 0.6426240924293267 0.0 -0.0 0.7611420715427216 0.6485851886434459
50 28.436235160081235 45.22761044949477 52.17856048887985 1.9472477157916668 0.6490825719305552 0.6490825719305552 0.0 0.0 0.5689873473401131 0.8223462765568174
51 53.66296936804455 33.67521628180047 42.27667433061191 1.9668178806896295 0.6556059602298757 0.6556059602298757 0.0 -0.0 0.9816329176571261 0.1907794930592849
52 18.53783361882348 59.738275249101896 40.62173864215013 1.9865847290146887 0.6621949096715668 0.6621949096715668 0.0 -0.0 0.8312938914163103 0.5558331279205367
53 28.711531367255596 26.931391765920434 0.45253558757496254 2.006550237468153 0.668850079156047 0.668850079156047 0.0 0.0 0.4937832216878833 0.8695850332081013
54 21.309190253124637 33.736850321119576 27.596817244060656 2.026716402617483 0.6755721342058247 0.6755721342058247 0.0 -0.0 0.7425013715714329 0.6698445440656666
55 18.454144755992218 52.137669145170186 4.931374791632869 2.026716402617483 0.6755721342058247 0.6755721342058247 0.0 -0.0 0.899222239431846 0.4374921303419936
56 39.61472058179466 24.32996154608463 46.029572470125025 2.0470852410960028 0.6823617470320049 0.6823617470320049 0.0 0.0 0.591041689671776 0.8066410112744902
57 48.32392081099379 10.341117754722834 42.85673703563713 2.0470852410960028 0.6823617470320049 0.6823617470320049 0.0 0.0 0.6906372933410847 0.7232013060320761
58 36.727236124172194 41.64808702388106 24.188420781968077 2.067658789804563 0.6892195966015173 0.6892195966015173 0.0 -0.0 0.9778925487455288 0.20910801779935065
59 31.55530890999068 43.60951008888526 49.47144653133993 2.067658789804563 0.6892195966015173 0.6892195966015173 0.0 -0.0 0.8334397726994561 0.5526103014626843
60 29.20900820806243 28.388849335926384 21.385814294953885 2.088439106115139 0.6961463687050463 0.6961463687050463 0.0 -0.0 0.8251393648538317 0.5649292243888745
61 24.153457841664284 24.727570403192935 46.02087399260032 2.088439106115139 0.6961463687050463 0.6961463687050463 0.0 -0.0 0.8342848482439009 0.5513336485202505
62 59.63177434297553 56.0452079087051 29.093976626477406 2.1094282680766985 0.7031427560255685 0.7031427560255685 0.0 0.0 0.6993489688984815 0.7147803996337831
63 33.04114719415751 42.37901987532344 11.711627396311755 2.1094282680766985 0.7031427560255685 0.7031427560255685 0.0 0.0 0.6638694557235675 0.747848477806363
64 22.318441025858025 54.61495640796076 4.4884996387963465 2.1306283746229453 0.7102094582076475 0.7102094582076475 0.0 0.0 0.5469534661185369 0.8371630103515794
65 8.85011667621837 0.24433087722224398 23.386086013978414 2.1306283746229453 0.7102094582076475 0.7102094582076475 0.0 0.0 0.534266604389083 0.8453160328744268
66 48.867764291848914 25.195076398549308 20.45379601354848 2.1520415457821818 0.7173471819273934 0.7173471819273934 0.0 0.0 0.49259387534365895 0.8702593142126752
67 1.969653915365478 54.658142084291086 7.514257384256693 2.1520415457821818 0.7173471819273934 0.7173471819273934 0.0 -0.0 0.7991221049958454 0.6011687461162707
68 21.477941962159143 59.59504405135428 49.994267534406305 2.1736699228893577 0.7245566409631159 0.7245566409631159 0.0 -0.0 0.8113628171424923 0.5845428803420658
69 45.33580035761987 55.77361259250114 8.198239536114052 2.1736699228893577 0.7245566409631159 0.7245566409631159 0.0 0.0 0.69974083585519 0.7143967823532522
70 26.37121016840205 3.863233861199817 22.551963761442476 2.195515668800219 0.7318385562667407 0.7318385562667407 0.0 -0.0 0.9226100212719841 0.3857340387475665
71 50.82269735819452 59.156971855695815 47.9185633776272 2.195515668800219 0.7318385562667407 0.7318385562667407 0.0 -0.0 0.8908476943010929 0.4543020862360491
72 54.55909240948417 1.6013658826477488 9.165215261746582 2.217580968107576 0.7391936560358571 0.7391936560358571 0.0 -0.0 0.9180976465577227 0.39635427509384946
73 2.9457270675142206 49.80512422770361 44.230223344613336 2.217580968107576 0.7391936560358571 0.7391936560358571 0.0 0.0 0.6852526383261238 0.7283054453092375
74 18.20980402909054 11.550338810139 3.7141918353809324 2.2398680273597225 0.7466226757865775 0.7466226757865775 0.0 0.0 0.6622208999947843 0.7493086677799063
75 46.96759969063576 16.77695535246317 13.57453564206896 2.2398680273597225 0.7466226757865775 0.7466226757865775 0.0 0.0 0.6669694181073614 0.7450850926636016
76 59.43654527112194 37.950488322266814 9.78932934079574 2.262379075281182 0.7541263584270586 0.7541263584270586 0.0 0.0 0.4849872773235938 0.8745212066235144
77 60.60003127174655 3.941121651568744 14.911389127830713 2.262379075281182 0.7541263584270586 0.7541263584270586 0.0 -0.0 0.724549744492829 0.6892225096116464
78 58.7991083367353 15.911071789205808 0.21282970575078508 2.285116362995477 0.7617054543318257 0.7617054543318257 0.0 0.0 0.646327957303847 0.7630597431442944
79 3.6101337271655733 7.845252718037808 16.876916003999977 2.285116362995477 0.7617054543318257 0.7617054543318257 0.0 0.0 0.4210348644808628 0.9070444547493698
80 6.3705429630358354 57.417422684195245 24.571135612961434 2.308082164250347 0.7693607214167837 0.7693607214167837 0.0 0.0 0.5786941501693628 0.8155446527074768
81 5.383047768625543 26.435578126106996 48.229308687068226 2.308082164250347 0.7693607214167837 0.7693607214167837 0.0 0.0 0.683142879342022 0.730284743373632
82 2.704210514917833 56.411856512385675 52.19006286666029 2.3312787756450546 0.7770929252150155 0.7770929252150155 0.0 0.0 0.3480344086077516 0.937481760049257
83 18.481383087685398 16.45873596450135 59.07045631466596 2.3312787756450546 0.7770929252150155 0.7770929252150155 0.0 -0.0 0.8280938516825816 0.560589486884571
84 13.981003697689575 23.224247696230517 43.23019964850355 2.3547085168600663 0.7849028389533562 0.7849028389533562 0.0 -0.0 0.8521868438699086 0.5232375972109076
85 3.667662388359745 38.14529783449199 14.144922134822657 2.3547085168600663 0.7849028389533562 0.7849028389533562 0.0 0.0 0.2683204071818837 0.9633297250109892
86 11.310002668185726 18.266029432550404 0.2526396299508721 2.378373730889017 0.792791243629675 0.792791243629675 0.0 0.0 0.5717525694490604 0.8204261083902665
87 6.49305323587864 56.23704619349415 43.10437297209352 2.378373730889017 0.792791243629675 0.792791243629675 0.0 -0.0 0.7407334016199733 0.6717990977401677
88 20.925738242576035 28.27721501515922 3.6333364017574743 2.4022767842730484 0.8007589280910137 0.8007589280910137 0.0 0.0 0.6524446383875427 0.7578363898885753
89 15.687260758347257 18.83831329680468 13.614474393816662 2.4022767842730484 0.8007589280910137 0.8007589280910137 0.0 0.0 0.3815125934194192 0.9243636411404275
90 39.675497046303576 57.811310725684926 40.85878719075044 2.426420067337402 0.8088066891124712 0.8088066891124712 0.0 -0.0 0.7664413141092511 0.642314340511314
91 14.97126510552923 16.194905841049785 37.013914527646534 2.426420067337402 0.8088066891124712 0.8088066891124712 0.0 -0.0 0.7164030651197486 0.6976866404676452
92 16.917775431859454 47.12471066723141 37.62539567411807 2.4508059944305294 0.8169353314768407 0.8169353314768407 0.0 0.0 0.3159382626609752 0.9487797500931208
93 18.06195764839338 3.7241459139303297 26.03858825423133 2.4508059944305294 0.8169353314768407 0.8169353314768407 0.0 -0.0 0.807675111463051 0.5896277760783901
94 35.031918907699506 15.787425284240314 56.14547454618568 2.4754370041654403 0.8251456680551424 0.8251456680551424 0.0 0.0 0.5856043209472178 0.8105970511221638
95 35.80234838363063 23.127926738046213 57.84240223900169 2.4754370041654403 0.8251456680551424 0.8251456680551424 0.0 -0.0 0.8283891439806925 0.5601530381377355
96 30.655283982907946 26.949631917313553 41.91321082919664 2.5003155596636253 0.8334385198878733 0.8334385198878733 0.0 0.0 0.6380161188650698 0.7700230074928626
97 20.21929204799512 46.65641997789275 11.143459560415504 2.5003155596636253 0.8334385198878733 0.8334385198878733 0.0 0.0 0.5652655734899162 0.8249089837231233
98 20.874440303674742 13.643191850034087 29.42796728973797 2.525444148801389 0.841814716267132 0.841814716267132 0.0 -0.0 0.9884337224668884 0.15165347437579585
99 52.38129038408882 31.24949912185907 5.256351331136033 2.525444148801389 0.841814716267132 0.841814716267132 0.0 0.0 0.644584962479319 0.7645326848117973
100 48.199599135152525 33.71613952709194 54.947743878276334 2.550825284458583 0.8502750948195255 0.8502750948195255 0.0 -0.0 0.7665764345255346 0.6421530736748979
101 34.11260636794668 41.891016836592094 4.430704027910081 2.550825284458583 0.8502750948195255 0.8502750948195255 0.0 -0.0 0.7486465484609144 0.6629693397718779
102 44.90274687623217 42.8397556321648 20.907455915426453 2.576461504769916 0.8588205015899735 0.8588205015899735 0.0 -0.0 0.764238184631255 0.644934102952793
103 29.069766410488285 23.32187260560534 21.296374974498676 2.576461504769916 0.8588205015899735 0.8588205015899735 0.0 -0.0 0.7262700822056904 0.6874094614514261
104 3.6501563447065464 40.55120927677362 26.723254721578297 2.6023553733787814 0.8674517911262596 0.8674517911262596 0.0 0.0 0.6864264585310771 0.7271992278794606
105 9.185528976039139 55.8912315850979 19.55716505613697 2.6023553733787814 0.8674517911262596 0.8674517911262596 0.0 -0.0 0.8498704758576332 0.5269916263713497
106 11.700836328253668 2.9499595816385034 52.875592619942765 2.628509479693618 0.8761698265645399 0.8761698265645399 0.0 -0.0 0.793590538753224 0.6084521811953406
107 52.521240962155716 58.373863532325856 19.80830029170217 2.628509479693618 0.8761698265645399 0.8761698265645399 0.0 -0.0 0.8299364941277125 0.5578578812878792
108 58.48907496046819 42.21201513933196 26.970598505993948 2.6549264391468563 0.8849754797156202 0.8849754797156202 0.0 -0.0 0.7596155095013813 0.650372414640225
109 36.91388684143185 44.24418297301924 26.90636620062039 2.6549264391468563 0.8849754797156202 0.8849754797156202 0.0 -0.0 0.746179639226726 0.6657446552571586
110 32.429733700687464 47.560532058609105 43.37921852632025 2.6816088934564535 0.8938696311521519 0.8938696311521519 0.0 -0.0 0.7434755474029917 0.6687631198068729
111 36.352414418388776 47.88704812422151 14.866734446364065 2.6816088934564535 0.8938696311521519 0.8938696311521519 0.0 -0.0 0.7635489887521677 0.6457499065238353
112 45.990828040587836 49.04709491400937 57.615451071007094 2.708559510890077 0.9028531702966915 0.9028531702966915 0.0 -0.0 0.925703395166632 0.3782502137170186
113 7.340922061109576 33.093355872802746 37.20261655963551 2.708559510890077 0.9028531702966915 0.9028531702966915 0.0 -0.0 0.7476030998596368 0.6641457709571461
114 3.4966106447221614 26.598660942468776 33.292380696109376 2.735780986531931 0.911926995510644 0.911926995510644 0.0 -0.0 0.7095009508808979 0.7047044775642494
115 40.097395258200436 8.313502626442656 17.70404491561549 2.735780986531931 0.911926995510644 0.911926995510644 0.0 0.0 0.692332939305712 0.7215782016887105
116 8.559009418310648 33.82877397247637 41.3746251180636 2.7632760425522673 0.9210920141840933 0.9210920141840933 0.0 0.0 0.4838188577050026 0.8751681626573412
117 41.807264889887506 51.986764039832764 60.591291183396606 2.7632760425522673 0.9210920141840933 0.9210920141840933 0.0 0.0 0.4072390243389004 0.9133216175343166
118 42.15115509489833 4.4870343599573195 2.7479749486700404 2.7910474284795934 0.9303491428265327 0.9303491428265327 0.0 -0.0 0.9854258972554679 0.17010526452245991
119 26.858372826717726 21.72121035067192 60.78895112542805 2.7910474284795934 0.9303491428265327 0.9303491428265327 0.0 0.0 0.693566054094668 0.720393037589587
120 0.21472245029046408 45.032576036003626 48.29073883696577 2.8190979214756493 0.9396993071585513 0.9396993071585513 0.0 -0.0 0.8546373086497397 0.5192254526349123
121 9.336154523715358 32.584218810051546 3.4113422825300592 2.8190979214756493 0.9396993071585513 0.9396993071585513 0.0 -0.0 0.738138054050796 0.6746496966293722
122 44.78872127600534 59.285716511725525 49.122499861861755 2.8474303266131322 0.9491434422043756 0.9491434422043756 0.0 0.0 0.30497028615780525 0.9523618663936657
123 57.1464216493993 31.25294682411578 58.45610124441254 2.8474303266131322 0.9491434422043756 0.9491434422043756 0.0 -0.0 0.8240326158671573 0.5665423620411186
124 30.86139745810195 24.0025624465835 10.976948791050356 2.8760474771561197 0.958682492385367 0.958682492385367 0.0 -0.0 0.7351480847541838 0.6779065521753388
125 50.71298741432981 6.94858711915529 21.00163035514761 2.8760474771561197 0.958682492385367 0.958682492385367 0.0 0.0 0.6354145425399089 0.7721711980699606
126 20.013625083570187 16.749656497800217 19.000311872434693 2.904952234843536 0.968317411614508 0.968317411614508 0.0 -0.0 0.9631928649301144 0.2688112812880415
127 2.3886166132910827 30.58245500000509 47.05328125220649 2.904952234843536 0.968317411614508 0.968317411614508 0.0 0.0 0.6645731125154195 0.7472232451694524
128 18.057496304440093 55.425724875467495 46.889405098814635 2.934147490175228 0.9780491633917406 0.9780491633917406 0.0 -0.0 0.837305869343264 0.5467347447925007
129 53.96617796411934 5.563223417466398 41.34931279284318 2.934147490175228 0.9780491633917406 0.9780491633917406 0.0 0.0 0.6718759690179156 0.7406636768846148
130 33.761775460559626 41.764819965400754 13.761444457373607 2.9636361627010794 0.98787872090036 0.98787872090036 0.0 -0.0 0.8172568989423515 0.5762735124323614
131 55.59404992219339 59.25716836241923 40.88298504267992 2.9636361627010794 0.98787872090036 0.98787872090036 0.0 0.0 0.5650588956672867 0.8250505708302167
132 29.159507105323684 19.091022499633347 56.2120018387332 2.99342120131291 0.9978070671043059 0.9978070671043059 0.0 0.0 0.5632303093681869 0.8262999568008076
133 54.68978991595381 54.53341421757333 33.25084349409624 2.99342120131291 0.9978070671043059 0.9978070671043059 0.0 0.0 0.7047758212396541 0.7094300823872436
134 6.950423446999977 18.468093571778653 40.79843316575422 3.0235055845394063 1.007835194846467 1.007835194846467 0.0 -0.0 0.7457546235329385 0.6662207152882933
135 55.091529222632644 4.6973988051928295 48.2617205885594 3.0235055845394063 1.007835194846467 1.007835194846467 0.0 0.0 0.5807371118896761 0.8140911539097067
136 8.935159477098797 38.13402863934087 53.10815899166307 3.0538923208439406 1.0179641069479761 1.0179641069479761 0.0 -0.0 0.7765636880913803 0.6300387593933514
137 23.056344593355856 30.25915339394945 14.799407557567719 3.0538923208439406 1.0179641069479761 1.0179641069479761 0.0 -0.0 0.9207785641385271 0.39008567754147583
138 50.66748033997124 38.4329110285773 0.2401976714840796 3.0845844489254577 1.0281948163084902 1.0281948163084902 0.0 0.0 0.5933031767685688 0.8049790931672228
139 57.22137067922796 9.492925168587721 2.748212950782191 3.0845844489254577 1.0281948163084902 1.0281948163084902 0.0 0.0 0.36293328461656904 0.9318151270061183
140 26.6825186661639 19.726713397440697 5.321836438395304 3.1155850380224104 1.0385283460074637 1.0385283460074637 0.0 0.0 0.5657838974393875 0.8245535649054563
141 4.592736691055468 52.35795786131827 3.9478578687760075 3.1155850380224104 1.0385283460074637 1.0385283460074637 0.0 0.0 0.5898626798291705 0.8075035720941112
142 16.52663734170689 32.025305591430325 8.117537360946331 3.1468971882194605 1.0489657294064887 1.0489657294064887 0.0 0.0 0.494526605223718 0.8691624915548904
143 48.45984367685464 21.997613654513668 58.1823521451829 3.1468971882194605 1.0489657294064887 1.0489657294064887 0.0 0.0 0.6621201748514545 0.7493976741721844
144 11.031820632195023 29.2090539162591 37.43264104879604 3.1785240307577496 1.059508010252584 1.059508010252584 0.0 -0.0 0.8358120424685423 0.5490156916378287
145 54.6155301892966 36.45705586524013 21.792207804917403 3.1785240307577496 1.059508010252584 1.059508010252584 0.0 -0.0 0.7380766977143534 0.6747168208152773
146 35.63675516430182 58.24618750926402 49.13632794227829 3.210468728347926 1.0701562427826425 1.0701562427826425 0.0 0.0 0.5600689403365469 0.8284460043179022
147 33.67926488943772 43.26243597030894 43.65130631842513 3.210468728347926 1.0701562427826425 1.0701562427826425 0.0 -0.0 0.8053653384335279 0.5927787712543771
148 53.505536933059766 38.23096506391797 58.39258391766537 3.2427344754863188 1.0809114918287666 1.0809114918287666 0.0 -0.0 0.9475491048281723 0.31961022189430877
149 11.625891152864575 57.54642904214786 33.85804067504108 3.2427344754863188 1.0809114918287666 1.0809114918287666 0.0 -0.0 0.8855269061838191 0.46458809543994295
150 51.233816159073434 56.58143934632503 7.942076741099353 3.2753244987745473 1.0917748329248511 1.0917748329248511 0.0 -0.0 0.8997163709941051 0.43647502994466686
151 20.037426356332407 6.484498813506729 0.830733024318407 3.2753244987745473 1.0917748329248511 1.0917748329248511 0.0 0.0 0.6949034215940625 0.7191030765174521
152 31.159742140329627 56.13880836702208 9.748348181821068 3.308242057242084 1.1027473524140312 1.1027473524140312 0.0 0.0 0.6496096252583186 0.7602679361723385
153 18.51388948580692 20.982932953348687 14.054897843423895 3.308242057242084 1.1027473524140312 1.1027473524140312 0.0 0.0 0.6980264017745981 0.7160720232110785
154 41.694671554382516 3.0028497920170834 5.988916446731944 3.3414904426722427 1.1138301475574137 1.1138301475574137 0.0 -0.0 0.9126309719920443 0.4087844284716046
155 18.785428277472647 36.66174087214771 10.341665606019752 3.3414904426722427 1.1138301475574137 1.1138301475574137 0.0 0.0 0.34897032679986184 0.9371337743423815
156 13.535389865412661 52.07120064248026 57.54858164782186 3.3750729799312458 1.125024326643754 1.125024326643754 0.0 0.0 0.6995675014656925 0.7145665195718649
157 26.795471434858243 56.983849202105624 43.35188810215726 3.3750729799312458 1.125024326643754 1.125024326643754 0.0 0.0 0.63565327495599 0.7719746848425306
158 48.26062548568277 29.646800721282915 30.31969391254352 3.408993027300815 1.1363310091002743 1.1363310091002743 0.0 -0.0 0.7426985308561326 0.6696259345814963
159 56.052564813555364 56.67423969309926 19.306518371495528 3.408993027300815 1.1363310091002743 1.1363310091002743 0.0 0.0 0.4891044501540252 0.8722252213961303
160 36.39521074208391 56.67287827412293 15.525476010649 3.4432539768139714 1.147751325604652 1.147751325604652 0.0 0.0 0.6466947184788655 0.7627489371290798
161 29.60545758749545 18.503612309405682 40.572407285207625 3.4432539768139714 1.147751325604652 1.147751325604652 0.0 0.0 0.6377575578887067 0.7702371695496348
162 50.63902311792525 60.796942244998036 34.8328377535812 3.477859254594153 1.1592864181980567 1.1592864181980567 0.0 0.0 0.6701572236966805 0.7422191694689361
163 41.35381733121507 25.538774585546314 33.74854264442466 3.477859254594153 1.1592864181980567 1.1592864181980567 0.0 -0.0 0.7797338016261434 0.6261111711203069
164 11.587100505476876 33.60072567217659 30.55397992717669 3.5128123211980467 1.1709374403993487 1.1709374403993487 0.0 0.0 0.6966086930688543 0.7174512727293072
165 19.292486860168996 33.108629378918934 54.205883883463706 3.5128123211980467 1.1709374403993487 1.1709374403993487 0.0 -0.0 0.8994069955971553 0.43711217813153935
9_B 49.24307957787278 61.74959783480814 59.546142114883274 1.292291433662524 0.43076381122084273 0.43076381122084273 0.0 -0.0 0.7176002965020949 0.6964551776389529
15_T 20.99396739659855 -0.8590394217376556 26.85271393445878 1.3722022730503647 0.4574007576834542 0.4574007576834542 0.0 0.0 0.6340811782098568 0.7732664866913604
22_T 43.77024109325153 -0.5336401397064705 3.9542426320655535 1.471698164182141 0.4905660547273823 0.4905660547273823 0.0 -0.0 0.8910647246123514 0.45387625687131333
24_B 23.09889450337841 60.90999636183368 48.57881035210262 1.501428439213545 0.5004761464045132 0.5004761464045132 0.0 0.0 0.5255054740936084 0.8507902189715464
34_F 4.988670787812108 21.952565176185665 -0.3986964577943297 1.6593350465905168 0.5531116821968363 0.5531116821968363 0.0 -0.0 0.7453722743584635 0.6666484625480594
37_R 61.81332372477363 46.80099625206984 57.11146262456529 1.709869322107171 0.5699564407023878 0.5699564407023878 0.0 0.0 0.5163603530767541 0.8563714064414165
41_R 61.32717631640943 26.084151503918182 52.26806845904745 1.7796504129101687 0.5932168043033894 0.5932168043033894 0.0 0.0 0.5813114541301716 0.8136811373609846
52_T 18.53783361882348 -1.1617247508981023 40.62173864215013 1.9865847290146887 0.6621949096715668 0.6621949096715668 0.0 -0.0 0.8312938914163103 0.5558331279205367
53_Ba 28.711531367255596 26.931391765920434 61.35253558757496 2.006550237468153 0.668850079156047 0.668850079156047 0.0 0.0 0.4937832216878833 0.8695850332081013
65_B 8.85011667621837 61.144330877222245 23.386086013978414 2.1306283746229453 0.7102094582076475 0.7102094582076475 0.0 0.0 0.534266604389083 0.8453160328744268
68_T 21.477941962159143 -1.3049559486457198 49.994267534406305 2.1736699228893577 0.7245566409631159 0.7245566409631159 0.0 -0.0 0.8113628171424923 0.5845428803420658
71_T 50.82269735819452 -1.7430281443041835 47.9185633776272 2.195515668800219 0.7318385562667407 0.7318385562667407 0.0 -0.0 0.8908476943010929 0.4543020862360491
72_B 54.55909240948417 62.50136588264775 9.165215261746582 2.217580968107576 0.7391936560358571 0.7391936560358571 0.0 -0.0 0.9180976465577227 0.39635427509384946
77_L -0.29996872825344667 3.941121651568744 14.911389127830713 2.262379075281182 0.7541263584270586 0.7541263584270586 0.0 -0.0 0.724549744492829 0.6892225096116464
78_Ba 58.7991083367353 15.911071789205808 61.112829705750784 2.285116362995477 0.7617054543318257 0.7617054543318257 0.0 0.0 0.646327957303847 0.7630597431442944
86_Ba 11.310002668185726 18.266029432550404 61.15263962995087 2.378373730889017 0.792791243629675 0.792791243629675 0.0 0.0 0.5717525694490604 0.8204261083902665
117_F 41.807264889887506 51.986764039832764 -0.3087088166033922 2.7632760425522673 0.9210920141840933 0.9210920141840933 0.0 0.0 0.4072390243389004 0.9133216175343166
119_F 26.858372826717726 21.72121035067192 -0.11104887457194934 2.7910474284795934 0.9303491428265327 0.9303491428265327 0.0 0.0 0.693566054094668 0.720393037589587
120_R 61.114722450290465 45.032576036003626 48.29073883696577 2.8190979214756493 0.9396993071585513 0.9396993071585513 0.0 -0.0 0.8546373086497397 0.5192254526349123