ITEM: TIMESTEP
773
ITEM: NUMBER OF ATOMS
282
ITEM: BOX BOUNDS ff ff ff
0 60.9
60.9 0
60.9 0
ITEM: ATOMS id x y z AsphericalShapeX AsphericalShapeY AsphericalShapeZ OrientationX OrientationY OrientationZ OrientationW
1 44.33863396077546 48.56688074056516 21.303186414017837 5.463502712147981 1.8211675707159987 1.8211675707159987 0.0 -0.0 0.7863642711635499 0.6177630881150306
2 3.9168950885397704 17.0301116660664 22.55452840303457 5.518411827269844 1.8394706090899067 1.8394706090899067 0.0 -0.0 0.8896314041555925 0.4566792799549252
3 17.2839284044541 10.286109515405851 55.568029898654494 5.573872788173023 1.8579575960577308 1.8579575960577308 0.0 0.0 0.631512325711268 0.7753658378305981
4 17.559459719952343 47.45533552447835 43.41715708309272 5.6298911410000985 1.8766303803334157 1.8766303803334157 0.0 0.0 0.5765741652112841 0.8170448164029381
5 33.44795887543577 33.96763021797874 20.804435133751454 5.686472487632918 1.8954908292109884 1.8954908292109884 0.0 -0.0 0.8873914294477543 0.4610167577677315
6 20.370162297750543 4.749533756763577 27.68857230186247 5.74362248625316 1.9145408287510592 1.9145408287510592 0.0 0.0 0.643710445538684 0.7652691437033046
7 19.11127703874362 52.14409253147523 39.29374094882475 5.801346851908348 1.9337822839694279 1.9337822839694279 0.0 -0.0 0.7603958793842515 0.6494598575858641
8 40.13609061705448 30.87989281899498 14.132772832294378 5.859651357083178 1.9532171190277816 1.9532171190277816 0.0 -0.0 0.7854601334426244 0.6189122545016335
9 49.3177636735612 5.925417265503423 51.40823842309935 5.918541832276923 1.9728472774256427 1.9728472774256427 0.0 -0.0 0.7176002965020949 0.6964551776389529
10 48.854787675744426 5.468206925102021 14.191436996388102 5.978024166585963 1.9926747221953254 1.9926747221953254 0.0 0.0 0.38534345666417513 0.9227732226317065
11 18.166508968120873 35.30545963520945 60.7399102495495 6.038104308293302 2.0127014360977893 2.0127014360977893 0.0 0.0 0.49983922045674145 0.866118209999765
12 9.755700983457519 12.906620927783798 24.921981469733765 6.098788265463178 2.0329294218211165 2.0329294218211165 0.0 0.0 0.2746680171135514 0.9615391205639581
13 7.358438547462088 51.17252043037947 12.532035694450657 6.160082106542121 2.053360702180713 2.053360702180713 0.0 -0.0 0.7886508549344257 0.614841303924191
14 11.387405696125247 36.387616447835725 20.884203601032155 6.221991960964991 2.0739973203216673 2.0739973203216673 0.0 -0.0 0.7750680292508737 0.6318777967559605
15 28.355746385740712 47.18122600986481 19.900750729484823 6.284524019769046 2.094841339923076 2.094841339923076 0.0 0.0 0.6340811782098568 0.7732664866913604
16 18.456594932414347 29.126193864324488 49.39484350763679 6.347684536212379 2.1158948454040964 2.1158948454040964 0.0 -0.0 0.7629176367612683 0.6464956918020424
17 18.542555267383303 10.37077925886464 33.47946563571489 6.411479826398846 2.1371599421329237 2.1371599421329237 0.0 0.0 0.6579222258448839 0.7530858813836
18 36.36471133236742 27.280713169773165 17.624293992220203 6.475916269910809 2.1586387566369565 2.1586387566369565 0.0 0.0 0.506211649243881 0.8624092799650234
19 14.426665601898948 7.245933111890453 32.96733605569114 6.541000310446523 2.1803334368155265 2.1803334368155265 0.0 0.0 0.6434542777811493 0.7654845474633303
20 29.032619378892075 45.220474949904855 35.335801615377726 6.60673845646408 2.2022461521547427 2.2022461521547427 0.0 -0.0 0.7861857262579329 0.6179902942832407
21 45.7307016464994 17.036336662024052 47.127513613222746 6.673137281832905 2.2243790939443207 2.2243790939443207 0.0 0.0 0.6069811502172251 0.7947162281474907
22 13.571251120750382 6.4888054361792875 28.32234184754114 6.740203426490944 2.246734475496977 2.246734475496977 0.0 -0.0 0.8910647246123514 0.45387625687131333
23 44.927756305713636 5.012492524414181 48.44626607520131 6.807943597108423 2.269314532369526 2.269314532369526 0.0 -0.0 0.7582829367961579 0.651925599868416
24 22.88870560157628 16.17823513939223 43.505103254403544 6.876364567758941 2.292121522586356 2.292121522586356 0.0 0.0 0.5255054740936084 0.8507902189715464
25 12.701995025534584 6.141376262082803 55.18623383272851 6.945473180596799 2.315157726865582 2.315157726865582 0.0 0.0 0.6637035342538496 0.7479957343587923
26 2.807178059832902 56.021507149327746 30.386787306812234 7.015276346540343 2.3384254488467477 2.3384254488467477 0.0 0.0 0.5361151400853296 0.8441448670526212
27 3.108465736981416 36.01979416926879 29.672861982161848 7.085781045964689 2.361927015321525 2.361927015321525 0.0 -0.0 0.7297620279401082 0.6837012378054764
28 11.490160032421977 30.757864085811665 28.940346021933838 7.156994329398479 2.3856647764661054 2.3856647764661054 0.0 -0.0 0.9828164757017253 0.18458541407500267
29 46.618361408170934 24.63487251474066 27.597868477352474 7.2289233182293975 2.4096411060764815 2.4096411060764815 0.0 -0.0 0.8740853421614372 0.4857723897243679
30 20.414464550369235 58.70289992178476 23.80835746128889 7.301575205416231 2.4338584018054257 2.4338584018054257 0.0 -0.0 0.8433777540022546 0.5373210995802349
31 56.49080097989634 41.5529397622601 31.868037320638468 7.374957256208139 2.4583190854027808 2.4583190854027808 0.0 0.0 0.6952778540174372 0.7187410560924617
32 53.79249584009999 31.397077456432683 33.92840623326548 7.4490768088717525 2.483025602957265 2.483025602957265 0.0 0.0 0.6353234605105568 0.7722461398575527
33 26.921497761108057 19.365358829333022 21.034110034117806 7.5239412754237405 2.5079804251411897 2.5079804251411897 0.0 0.0 0.6411270229476993 0.7674347792784871
34 19.37347623116905 15.945715893839823 23.117203038084664 7.599558142373042 2.53318604745775 2.53318604745775 0.0 -0.0 0.7453722743584635 0.6666484625480594
35 23.620126522121154 37.66561801095278 37.09086436233138 7.67593497146972 2.558644990489965 2.558644990489965 0.0 -0.0 0.7109313362059317 0.7032614273514853
36 37.478746021409975 2.4334357765860513 59.098248818633174 7.753079400460201 2.5843598001534693 2.5843598001534693 0.0 -0.0 0.739632735620696 0.6730107104632479
37 25.123851359306393 51.169227439187985 27.06376231069292 7.830999143851856 2.6103330479506335 2.6103330479506335 0.0 0.0 0.5163603530767541 0.8563714064414165
38 15.958271869298539 6.8593677382364895 17.823417298393334 7.909701993683507 2.6365673312277758 2.6365673312277758 0.0 0.0 0.5145463711011363 0.8574625542766586
39 9.356574794626075 41.18704263685399 27.012459334211414 7.989195820305903 2.663065273435301 2.663065273435301 0.0 0.0 0.5880831456971182 0.8088004783300898
40 55.48239642890863 11.524177450320387 12.46989837904762 8.06948857316822 2.6898295243894106 2.6898295243894106 0.0 -0.0 0.8608342640850161 0.5088854191045453
41 7.958543799496255 18.705490367023287 31.449348402545986 8.150588281612253 2.7168627605374303 2.7168627605374303 0.0 0.0 0.5813114541301716 0.8136811373609846
42 13.736368099207224 54.66140567022272 39.873533321971586 8.23250305567657 2.7441676852255754 2.7441676852255754 0.0 0.0 0.6858728758951139 0.7277213739552836
43 59.942792345324634 40.86447455883986 39.978902140466076 8.315241086907275 2.771747028969043 2.771747028969043 0.0 -0.0 0.8971229945165649 0.4417808650333688
44 43.10932892586173 16.561689400533538 22.863054264673696 8.398810649175722 2.799603549725214 2.799603549725214 0.0 -0.0 0.7662793896249596 0.6425075073771507
45 50.44672895142 56.38071175034334 39.31104260694893 8.483220099508348 2.827740033169401 2.827740033169401 0.0 -0.0 0.8021859139948743 0.5970743332184094
46 18.852431187865875 57.70938753886101 13.382548297387983 8.568477878919968 2.8561592929733686 2.8561592929733686 0.0 0.0 0.6689296931602822 0.7433256793683982
47 51.459929876450246 35.11702788929698 15.267330824718059 8.654592513260257 2.884864171086735 2.884864171086735 0.0 -0.0 0.8121614142020023 0.5834328044268712
48 0.41814673966878685 47.53072069953466 14.47638135963107 8.741572614063914 2.913857538021306 2.913857538021306 0.0 0.0 0.43861391052531945 0.8986756019241242
49 25.765420125067013 60.83815755756522 8.579551120010642 8.829426879413644 2.943142293137839 2.943142293137839 0.0 -0.0 0.7611420715427216 0.6485851886434459
50 26.204555593746424 21.726980027029622 60.16445414966713 8.91816409480916 2.9727213649363566 2.9727213649363566 0.0 0.0 0.5689873473401131 0.8223462765568174
51 47.36798830331978 23.910029143253052 40.339334151745334 9.007793134046025 3.002597711348713 3.002597711348713 0.0 -0.0 0.9816329176571261 0.1907794930592849
52 36.77862933148145 13.585601058549907 19.07909670084709 9.098322960102962 3.032774320034284 3.032774320034284 0.0 -0.0 0.8312938914163103 0.5558331279205367
53 6.376354708434804 53.654745800120395 0.7434582325897459 9.18976262603754 3.0632542086792265 3.0632542086792265 0.0 0.0 0.4937832216878833 0.8695850332081013
54 40.387744300350164 51.60664640867817 41.13777850577295 9.282121275893077 3.094040425297658 3.094040425297658 0.0 -0.0 0.7425013715714329 0.6698445440656666
55 22.264283289946004 39.304081943039854 16.787393380335725 9.282121275893077 3.094040425297658 3.094040425297658 0.0 -0.0 0.899222239431846 0.4374921303419936
56 42.09482922925531 3.3204171607450714 16.399174452267236 9.375408145611273 3.1251360485371205 3.1251360485371205 0.0 0.0 0.591041689671776 0.8066410112744902
57 50.78714841678183 60.80483146364663 53.755177042288075 9.375408145611273 3.1251360485371205 3.1251360485371205 0.0 0.0 0.6906372933410847 0.7232013060320761
58 26.09215474117124 39.12078201514014 30.700737070365694 9.469632563957001 3.1565441879856277 3.1565441879856277 0.0 -0.0 0.9778925487455288 0.20910801779935065
59 33.20568985415239 0.6094051228101576 23.351870226696928 9.469632563957001 3.1565441879856277 3.1565441879856277 0.0 -0.0 0.8334397726994561 0.5526103014626843
60 50.45932101093875 19.05280212093711 53.51646611440938 9.564803953450598 3.1882679844834665 3.1882679844834665 0.0 -0.0 0.8251393648538317 0.5649292243888745
61 3.908554126100244 12.287501469367829 42.47128618824901 9.564803953450598 3.1882679844834665 3.1882679844834665 0.0 -0.0 0.8342848482439009 0.5513336485202505
62 18.0472464481488 8.29780755945556 38.61214204798491 9.6609318313099 3.2203106104366084 3.2203106104366084 0.0 0.0 0.6993489688984815 0.7147803996337831
63 32.86147663667373 10.162530230139396 47.34044735828548 9.6609318313099 3.2203106104366084 3.2203106104366084 0.0 0.0 0.6638694557235675 0.747848477806363
64 44.70129705351322 30.097327810196578 45.99789463938431 9.758025810403312 3.2526752701344703 3.2526752701344703 0.0 0.0 0.5469534661185369 0.8371630103515794
65 6.891253286763952 26.761229677326423 5.671602704066652 9.758025810403312 3.2526752701344703 3.2526752701344703 0.0 0.0 0.534266604389083 0.8453160328744268
66 22.1217222984834 55.95694874322882 32.8260154964895 9.856095600209452 3.2853652000698417 3.2853652000698417 0.0 0.0 0.49259387534365895 0.8702593142126752
67 53.40308845624759 15.927690343304441 7.350001479282554 9.856095600209452 3.2853652000698417 3.2853652000698417 0.0 -0.0 0.7991221049958454 0.6011687461162707
68 35.42894020645866 20.617880977489055 24.440610475095333 9.955151007789214 3.3183836692630817 3.3183836692630817 0.0 -0.0 0.8113628171424923 0.5845428803420658
69 33.981605220889186 9.870667636415998 53.86367822042591 9.955151007789214 3.3183836692630817 3.3183836692630817 0.0 0.0 0.69974083585519 0.7143967823532522
70 6.430771741092647 59.5347778077019 15.246146743445298 10.055201938765451 3.3517339795885563 3.3517339795885563 0.0 -0.0 0.9226100212719841 0.3857340387475665
71 14.055604583610569 60.759001739339496 23.86984725276278 10.055201938765451 3.3517339795885563 3.3517339795885563 0.0 -0.0 0.8908476943010929 0.4543020862360491
72 10.949414117957684 44.002676333872415 10.02428827930226 10.156258398315229 3.3854194661050885 3.3854194661050885 0.0 -0.0 0.9180976465577227 0.39635427509384946
73 37.44859470503806 34.78930143835387 29.878351477596762 10.156258398315229 3.3854194661050885 3.3854194661050885 0.0 0.0 0.6852526383261238 0.7283054453092375
74 45.77104630628807 22.66791709800141 17.03403787578032 10.258330492168286 3.419443497389432 3.419443497389432 0.0 0.0 0.6622208999947843 0.7493086677799063
75 49.884886745242284 41.23273982220625 44.825787534219494 10.258330492168286 3.419443497389432 3.419443497389432 0.0 0.0 0.6669694181073614 0.7450850926636016
76 3.1885734780308805 11.871483258525133 29.281197596386296 10.361428427619051 3.453809475873098 3.453809475873098 0.0 0.0 0.4849872773235938 0.8745212066235144
77 13.785055272412045 49.93718809565727 17.718364459814143 10.361428427619051 3.453809475873098 3.453809475873098 0.0 -0.0 0.724549744492829 0.6892225096116464
78 5.19149318386583 12.971042240709945 16.049964625817495 10.465562514547495 3.488520838182444 3.488520838182444 0.0 0.0 0.646327957303847 0.7630597431442944
79 59.7980237191106 26.34442688236097 27.718233887845614 10.465562514547495 3.488520838182444 3.488520838182444 0.0 0.0 0.4210348644808628 0.9070444547493698
80 2.8018610370889165 60.72622613253076 24.64267081238946 10.570743166448377 3.5235810554828135 3.5235810554828135 0.0 0.0 0.5786941501693628 0.8155446527074768
81 58.09633861095836 52.361759237408855 25.641346626457796 10.570743166448377 3.5235810554828135 3.5235810554828135 0.0 0.0 0.683142879342022 0.730284743373632
82 10.821920626420301 56.323603625470625 5.969495566264683 10.676980901474934 3.5589936338249615 3.5589936338249615 0.0 0.0 0.3480344086077516 0.937481760049257
83 13.956452251289493 38.665434119855114 4.664471695403497 10.676980901474934 3.5589936338249615 3.5589936338249615 0.0 -0.0 0.8280938516825816 0.560589486884571
84 36.93026599476155 13.304701763404811 4.109169859319576 10.784286343489283 3.594762114496441 3.594762114496441 0.0 -0.0 0.8521868438699086 0.5232375972109076
85 16.714598615410925 46.98799527234033 24.875922815995725 10.784286343489283 3.594762114496441 3.594762114496441 0.0 0.0 0.2683204071818837 0.9633297250109892
86 5.603205187494104 55.716826037532456 54.996840161378444 10.892670223124759 3.6308900743748893 3.6308900743748893 0.0 0.0 0.5717525694490604 0.8204261083902665
87 7.654627529089756 60.74447177013203 42.44325056788272 10.892670223124759 3.6308900743748893 3.6308900743748893 0.0 -0.0 0.7407334016199733 0.6717990977401677
88 34.39127631015479 42.517626046167514 54.900141650704406 11.002143378859941 3.6673811262866347 3.6673811262866347 0.0 0.0 0.6524446383875427 0.7578363898885753
89 39.30513919358018 15.856979904662637 43.8930650204412 11.002143378859941 3.6673811262866347 3.6673811262866347 0.0 0.0 0.3815125934194192 0.9243636411404275
90 18.75411931572233 14.124439419420495 49.138484459810186 11.112716758101673 3.7042389193671936 3.7042389193671936 0.0 -0.0 0.7664413141092511 0.642314340511314
91 27.50618350394515 4.217374864037141 27.755838116575685 11.112716758101673 3.7042389193671936 3.7042389193671936 0.0 -0.0 0.7164030651197486 0.6976866404676452
92 54.3464997820136 15.618913816613368 35.88300183988506 11.22440141827958 3.7414671394264585 3.7414671394264585 0.0 0.0 0.3159382626609752 0.9487797500931208
93 17.192720623311068 23.402421571535005 30.72414376302078 11.22440141827958 3.7414671394264585 3.7414671394264585 0.0 -0.0 0.807675111463051 0.5896277760783901
94 52.4390741345834 10.37459928776417 44.412207180368554 11.33720852795295 3.7790695093176123 3.7790695093176123 0.0 0.0 0.5856043209472178 0.8105970511221638
95 41.55171988562861 60.034623816992195 54.1746895956624 11.33720852795295 3.7790695093176123 3.7790695093176123 0.0 -0.0 0.8283891439806925 0.5601530381377355
96 45.66942978022488 9.98461786645575 37.50525632998911 11.451149367927005 3.8170497893090163 3.8170497893090163 0.0 0.0 0.6380161188650698 0.7700230074928626
97 26.481015982501955 0.19514217871600437 18.144814399961295 11.451149367927005 3.8170497893090163 3.8170497893090163 0.0 0.0 0.5652655734899162 0.8249089837231233
98 16.388731142588128 22.31898624375695 38.46490009194922 11.566235332380232 3.855411777460038 3.855411777460038 0.0 -0.0 0.9884337224668884 0.15165347437579585
99 50.743974662260214 35.05086216970636 7.8244308994314204 11.566235332380232 3.855411777460038 3.855411777460038 0.0 0.0 0.644584962479319 0.7645326848117973
100 26.75917644573184 34.4149611756981 54.18955256490343 11.682477930005671 3.89415931000193 3.89415931000193 0.0 -0.0 0.7665764345255346 0.6421530736748979
101 17.454130494086797 16.69877903623298 0.06203209003197685 11.682477930005671 3.89415931000193 3.89415931000193 0.0 -0.0 0.7486465484609144 0.6629693397718779
102 42.297548095330384 39.47782342501505 8.79631661749158 11.799888785159261 3.9332962617198 3.9332962617198 0.0 -0.0 0.764238184631255 0.644934102952793
103 24.935385254067246 41.878819359886386 0.17080199846472824 11.799888785159261 3.9332962617198 3.9332962617198 0.0 -0.0 0.7262700822056904 0.6874094614514261
104 52.57124393336223 59.48743967993806 46.880173598026886 11.918479639024817 3.972826546341518 3.972826546341518 0.0 0.0 0.6864264585310771 0.7271992278794606
105 20.239220391140123 42.2156851127143 10.533812764745662 11.918479639024817 3.972826546341518 3.972826546341518 0.0 -0.0 0.8498704758576332 0.5269916263713497
106 11.743852993417102 16.395041626451246 47.06578818471117 12.038262350785946 4.0127541169287255 4.0127541169287255 0.0 -0.0 0.793590538753224 0.6084521811953406
107 40.19042816611874 43.67561619030299 16.180152312283727 12.038262350785946 4.0127541169287255 4.0127541169287255 0.0 -0.0 0.8299364941277125 0.5578578812878792
108 51.22575248579287 38.527545261688275 55.854383704069676 12.159248898814457 4.053082966271483 4.053082966271483 0.0 -0.0 0.7596155095013813 0.650372414640225
109 59.46240688436167 34.98214330843906 3.876986237208048 12.159248898814457 4.053082966271483 4.053082966271483 0.0 -0.0 0.746179639226726 0.6657446552571586
110 41.22675444226328 19.66747946589399 52.41106765423774 12.281451381865487 4.093817127288497 4.093817127288497 0.0 -0.0 0.7434755474029917 0.6687631198068729
111 29.354676353839544 38.19177768055845 25.198638987988677 12.281451381865487 4.093817127288497 4.093817127288497 0.0 -0.0 0.7635489887521677 0.6457499065238353
112 54.72988093377771 60.83558986789594 18.28181742956069 12.404882020289387 4.1349606734298705 4.1349606734298705 0.0 -0.0 0.925703395166632 0.3782502137170186
113 19.482971166106203 5.518431667544208 6.503733310055602 12.404882020289387 4.1349606734298705 4.1349606734298705 0.0 -0.0 0.7476030998596368 0.6641457709571461
114 9.399596943189302 60.860475141962425 34.69591997763072 12.529553157252991 4.176517719084249 4.176517719084249 0.0 -0.0 0.7095009508808979 0.7047044775642494
115 26.417860592386155 11.730433516482005 52.44268346662749 12.529553157252991 4.176517719084249 4.176517719084249 0.0 0.0 0.692332939305712 0.7215782016887105
116 12.512493169553139 29.595164996661843 54.32032439854947 12.65547725997307 4.2184924199910805 4.2184924199910805 0.0 0.0 0.4838188577050026 0.8751681626573412
117 42.67842387506259 38.15847124225336 24.23379349789694 12.65547725997307 4.2184924199910805 4.2184924199910805 0.0 0.0 0.4072390243389004 0.9133216175343166
118 40.98007177241381 15.119093556270583 60.36942460523466 12.782666920965688 4.260888973655232 4.260888973655232 0.0 -0.0 0.9854258972554679 0.17010526452245991
119 32.54371950089517 29.187223182357226 60.69938341595707 12.782666920965688 4.260888973655232 4.260888973655232 0.0 0.0 0.693566054094668 0.720393037589587
120 25.013268099431926 20.96531680413495 28.919443275445648 12.911134859302916 4.303711619767554 4.303711619767554 0.0 -0.0 0.8546373086497397 0.5192254526349123
121 60.00902242499978 35.65241157620709 55.754527222241336 12.911134859302916 4.303711619767554 4.303711619767554 0.0 -0.0 0.738138054050796 0.6746496966293722
122 57.13853268451743 21.613449282301858 60.78696574361083 13.040893921885047 4.346964640628311 4.346964640628311 0.0 0.0 0.30497028615780525 0.9523618663936657
123 43.865474045688956 43.02280195887326 51.78505171072262 13.040893921885047 4.346964640628311 4.346964640628311 0.0 -0.0 0.8240326158671573 0.5665423620411186
124 5.838100271531835 33.789225086510584 0.20708753029944718 13.171957084726936 4.390652361575638 4.390652361575638 0.0 -0.0 0.7351480847541838 0.6779065521753388
125 60.67510226688707 60.78919589696848 50.05411324387807 13.171957084726936 4.390652361575638 4.390652361575638 0.0 0.0 0.6354145425399089 0.7721711980699606
126 35.95193840932654 59.70279688028315 43.053612243207226 13.304337454253917 4.434779151417985 4.434779151417985 0.0 -0.0 0.9631928649301144 0.2688112812880415
127 1.6772654674581744 25.722153211099783 36.77937785107289 13.304337454253917 4.434779151417985 4.434779151417985 0.0 0.0 0.6645731125154195 0.7472232451694524
128 5.780550037687745 43.89449612169666 47.8716525268153 13.438048268613104 4.479349422871033 4.479349422871033 0.0 -0.0 0.837305869343264 0.5467347447925007
129 33.5179856785564 55.4644265699425 12.302678056211299 13.438048268613104 4.479349422871033 4.479349422871033 0.0 0.0 0.6718759690179156 0.7406636768846148
130 28.14093175686456 32.63722172919506 15.823564172293404 13.573102898997801 4.52436763299932 4.52436763299932 0.0 -0.0 0.8172568989423515 0.5762735124323614
131 7.964238240688387 35.359282862147275 35.44307356214847 13.573102898997801 4.52436763299932 4.52436763299932 0.0 0.0 0.5650588956672867 0.8250505708302167
132 25.04258616766963 59.41687290277431 52.207495106409134 13.709514850983343 4.569838283661182 4.569838283661182 0.0 0.0 0.5632303093681869 0.8262999568008076
133 15.8148820435717 44.51131692833603 32.7133137182836 13.709514850983343 4.569838283661182 4.569838283661182 0.0 0.0 0.7047758212396541 0.7094300823872436
134 57.72968276228176 26.664917828922594 45.20450796338373 13.847297765878544 4.615765921959505 4.615765921959505 0.0 -0.0 0.7457546235329385 0.6662207152882933
135 40.81623076442116 37.78731750782377 0.08418595530675077 13.847297765878544 4.615765921959505 4.615765921959505 0.0 0.0 0.5807371118896761 0.8140911539097067
136 20.03361227352977 57.653103407610836 60.686562430219126 13.986465422089722 4.6621551406966635 4.6621551406966635 0.0 -0.0 0.7765636880913803 0.6300387593933514
137 0.27131905058835487 39.12824499109626 21.221210131471587 13.986465422089722 4.6621551406966635 4.6621551406966635 0.0 -0.0 0.9207785641385271 0.39008567754147583
138 56.050984176325414 15.636805996314271 23.84184649843862 14.127031736498704 4.709010578832869 4.709010578832869 0.0 0.0 0.5933031767685688 0.8049790931672228
139 6.064843529254659 5.083614022525849 60.78417842283403 14.127031736498704 4.709010578832869 4.709010578832869 0.0 0.0 0.36293328461656904 0.9318151270061183
140 60.115786894553544 60.61302867375892 38.357244173098685 14.269010765854201 4.756336921951394 4.756336921951394 0.0 0.0 0.5657838974393875 0.8245535649054563
141 16.377942071280987 42.763732762417284 53.516856788788466 14.269010765854201 4.756336921951394 4.756336921951394 0.0 0.0 0.5898626798291705 0.8075035720941112
142 6.430815407035989 10.235414241203681 6.737763033437525 14.412416708176519 4.804138902725533 4.804138902725533 0.0 0.0 0.494526605223718 0.8691624915548904
143 30.076571431837444 60.58523731591747 0.274762576315526 14.412416708176519 4.804138902725533 4.804138902725533 0.0 0.0 0.6621201748514545 0.7493976741721844
144 10.064052061503377 33.14339105593991 44.99909966642979 14.55726390418032 4.852421301393551 4.852421301393551 0.0 -0.0 0.8358120424685423 0.5490156916378287
145 11.76464226004356 23.161542306493146 12.586962088224324 14.55726390418032 4.852421301393551 4.852421301393551 0.0 -0.0 0.7380766977143534 0.6747168208152773
146 17.20287683853421 60.48472673283896 45.89348978953233 14.70356683870559 4.901188946235301 4.901188946235301 0.0 0.0 0.5600689403365469 0.8284460043179022
147 38.11208554167489 13.22351756333488 31.18695440502956 14.70356683870559 4.901188946235301 4.901188946235301 0.0 -0.0 0.8053653384335279 0.5927787712543771
148 60.76034288807705 15.236361045973435 52.030024480093594 14.85134014216813 4.950446714056029 4.950446714056029 0.0 -0.0 0.9475491048281723 0.31961022189430877
149 42.25192091524148 60.500439062692756 24.523154095123534 14.85134014216813 4.950446714056029 4.950446714056029 0.0 -0.0 0.8855269061838191 0.46458809543994295
150 13.571712119104408 25.487416065032896 22.43685184449522 15.000598592020774 5.000199530673593 5.000199530673593 0.0 -0.0 0.8997163709941051 0.43647502994466686
151 32.728063082180014 28.631858193953992 36.791642155950875 15.000598592020774 5.000199530673593 5.000199530673593 0.0 0.0 0.6949034215940625 0.7191030765174521
152 55.026335837056344 59.78418215147188 0.0444638860888702 15.151357114233223 5.050452371411052 5.050452371411052 0.0 0.0 0.6496096252583186 0.7602679361723385
153 31.97976653608417 36.571966550316326 5.806464130877008 15.151357114233223 5.050452371411052 5.050452371411052 0.0 0.0 0.6980264017745981 0.7160720232110785
154 39.23623063827207 6.338225301610456 9.859705163897065 15.303630784782934 5.101210261594325 5.101210261594325 0.0 -0.0 0.9126309719920443 0.4087844284716046
155 21.89807563525855 23.76383127198491 6.096518319018078 15.303630784782934 5.101210261594325 5.101210261594325 0.0 0.0 0.34897032679986184 0.9371337743423815
156 34.662923301885314 38.90696846055971 46.17838747526893 15.457434831164672 5.1524782770548025 5.1524782770548025 0.0 0.0 0.6995675014656925 0.7145665195718649
157 25.181191157559727 31.55001488244119 45.60307190026123 15.457434831164672 5.1524782770548025 5.1524782770548025 0.0 0.0 0.63565327495599 0.7719746848425306
158 51.85432320057479 60.43293979736652 31.059573713930668 15.612784633910573 5.204261544636729 5.204261544636729 0.0 -0.0 0.7426985308561326 0.6696259345814963
159 21.300899537286053 13.58091926364788 14.96308167096359 15.612784633910573 5.204261544636729 5.204261544636729 0.0 0.0 0.4891044501540252 0.8722252213961303
160 44.978918633310315 55.755550190893935 1.6865573666173161 15.76969572813042 5.256565242710169 5.256565242710169 0.0 0.0 0.6466947184788655 0.7627489371290798
161 26.935685910926637 6.381656383633692 36.795901176630075 15.76969572813042 5.256565242710169 5.256565242710169 0.0 0.0 0.6377575578887067 0.7702371695496348
162 59.37981669581724 60.06359668242595 7.787976157865201 15.928183805064197 5.309394601688037 5.309394601688037 0.0 0.0 0.6701572236966805 0.7422191694689361
163 37.49992596564254 58.012693297562336 33.293743022751165 15.928183805064197 5.309394601688037 5.309394601688037 0.0 -0.0 0.7797338016261434 0.6261111711203069
164 44.66360686027445 38.74029708396032 35.41273189183833 16.08826471365259 5.36275490455086 5.36275490455086 0.0 0.0 0.6966086930688543 0.7174512727293072
165 0.05280463681131553 28.160750513007994 14.797381022239728 16.08826471365259 5.36275490455086 5.36275490455086 0.0 -0.0 0.8994069955971553 0.43711217813153935
6_B 20.370162297750543 65.64953375676357 27.68857230186247 5.74362248625316 1.9145408287510592 1.9145408287510592 0.0 0.0 0.643710445538684 0.7652691437033046
11_F 18.166508968120873 35.30545963520945 -0.16008975045049567 6.038104308293302 2.0127014360977893 2.0127014360977893 0.0 0.0 0.49983922045674145 0.866118209999765
23_B 44.927756305713636 65.91249252441418 48.44626607520131 6.807943597108423 2.269314532369526 2.269314532369526 0.0 -0.0 0.7582829367961579 0.651925599868416
25_B 12.701995025534584 67.0413762620828 55.18623383272851 6.945473180596799 2.315157726865582 2.315157726865582 0.0 0.0 0.6637035342538496 0.7479957343587923
26_RB 63.7071780598329 56.021507149327746 30.386787306812234 7.015276346540343 2.3384254488467477 2.3384254488467477 0.0 0.0 0.5361151400853296 0.8441448670526212
26_LT 2.807178059832902 -4.878492850672252 30.386787306812234 7.015276346540343 2.3384254488467477 2.3384254488467477 0.0 0.0 0.5361151400853296 0.8441448670526212
26_RT 63.7071780598329 -4.878492850672252 30.386787306812234 7.015276346540343 2.3384254488467477 2.3384254488467477 0.0 0.0 0.5361151400853296 0.8441448670526212
30_T 20.414464550369235 -2.197100078215236 23.80835746128889 7.301575205416231 2.4338584018054257 2.4338584018054257 0.0 -0.0 0.8433777540022546 0.5373210995802349
36_BB 37.478746021409975 63.33343577658605 59.098248818633174 7.753079400460201 2.5843598001534693 2.5843598001534693 0.0 -0.0 0.739632735620696 0.6730107104632479
36_FT 37.478746021409975 2.4334357765860513 -1.801751181366825 7.753079400460201 2.5843598001534693 2.5843598001534693 0.0 -0.0 0.739632735620696 0.6730107104632479
36_FB 37.478746021409975 63.33343577658605 -1.801751181366825 7.753079400460201 2.5843598001534693 2.5843598001534693 0.0 -0.0 0.739632735620696 0.6730107104632479
38_B 15.958271869298539 67.75936773823649 17.823417298393334 7.909701993683507 2.6365673312277758 2.6365673312277758 0.0 0.0 0.5145463711011363 0.8574625542766586
42_T 13.736368099207224 -6.238594329777278 39.873533321971586 8.23250305567657 2.7441676852255754 2.7441676852255754 0.0 0.0 0.6858728758951139 0.7277213739552836
43_L -0.957207654675365 40.86447455883986 39.978902140466076 8.315241086907275 2.771747028969043 2.771747028969043 0.0 -0.0 0.8971229945165649 0.4417808650333688
45_T 50.44672895142 -4.519288249656661 39.31104260694893 8.483220099508348 2.827740033169401 2.827740033169401 0.0 -0.0 0.8021859139948743 0.5970743332184094
46_T 18.852431187865875 -3.19061246113899 13.382548297387983 8.568477878919968 2.8561592929733686 2.8561592929733686 0.0 0.0 0.6689296931602822 0.7433256793683982
48_R 61.318146739668784 47.53072069953466 14.47638135963107 8.741572614063914 2.913857538021306 2.913857538021306 0.0 0.0 0.43861391052531945 0.8986756019241242
49_T 25.765420125067013 -0.061842442434780764 8.579551120010642 8.829426879413644 2.943142293137839 2.943142293137839 0.0 -0.0 0.7611420715427216 0.6485851886434459
50_F 26.204555593746424 21.726980027029622 -0.7355458503328691 8.91816409480916 2.9727213649363566 2.9727213649363566 0.0 0.0 0.5689873473401131 0.8223462765568174
53_FT 6.376354708434804 -7.245254199879604 0.7434582325897459 9.18976262603754 3.0632542086792265 3.0632542086792265 0.0 0.0 0.4937832216878833 0.8695850332081013