ITEM: TIMESTEP
328
ITEM: NUMBER OF ATOMS
204
ITEM: BOX BOUNDS ff ff ff
0 60.9
60.9 0
60.9 0
ITEM: ATOMS id x y z AsphericalShapeX AsphericalShapeY AsphericalShapeZ OrientationX OrientationY OrientationZ OrientationW
1 45.71461163993813 46.19218284973171 27.37270857393614 2.3223415921145523 0.7741138640381892 0.7741138640381892 0.0 -0.0 0.7863642711635499 0.6177630881150306
2 17.247956744217444 10.538218887375358 24.880434338331217 2.3456815131418263 0.7818938377139334 0.7818938377139334 0.0 -0.0 0.8896314041555925 0.4566792799549252
3 14.059118841027251 27.406970739842148 57.56245337166975 2.369256004275131 0.7897520014250443 0.7897520014250443 0.0 0.0 0.631512325711268 0.7753658378305981
4 18.43427471464976 56.15270453426773 44.76599409846203 2.393067422983281 0.7976891409944198 0.7976891409944198 0.0 0.0 0.5765741652112841 0.8170448164029381
5 46.411273486601274 7.753126389594833 14.871954521278074 2.4171181504279438 0.8057060501426394 0.8057060501426394 0.0 -0.0 0.8873914294477543 0.4610167577677315
6 27.263027706763268 1.572458935608505 20.70766909059475 2.4414105917018984 0.8138035305673055 0.8138035305673055 0.0 0.0 0.643710445538684 0.7652691437033046
7 40.86812409565735 0.8637820026451046 26.31352988973668 2.465947176069569 0.821982392023193 0.821982392023193 0.0 -0.0 0.7603958793842515 0.6494598575858641
8 46.832678225925186 34.54466906662095 12.080143313937176 2.4907303572098 0.8302434524032641 0.8302434524032641 0.0 -0.0 0.7854601334426244 0.6189122545016335
9 47.995247163931936 59.38442206219143 52.50946610170339 2.5157626134613733 0.8385875378204593 0.8385875378204593 0.0 -0.0 0.7176002965020949 0.6964551776389529
10 11.462610500141409 2.0880355859921598 13.18681100176961 2.5410464480707526 0.8470154826902553 0.8470154826902553 0.0 0.0 0.38534345666417513 0.9227732226317065
11 26.989565657840036 16.89363605676015 2.9107727855639225 2.566584389442501 0.8555281298141633 0.8555281298141633 0.0 0.0 0.49983922045674145 0.866118209999765
12 3.923520925570597 3.7620994162222483 22.48560604675796 2.592378991392002 0.8641263304639976 0.8641263304639976 0.0 0.0 0.2746680171135514 0.9615391205639581
13 13.612481806987459 54.94027061980845 28.371239863656776 2.6184328334009987 0.8728109444669938 0.8728109444669938 0.0 -0.0 0.7886508549344257 0.614841303924191
14 17.952987928987298 31.46441128042852 22.69826702380102 2.644748520875346 0.8815828402917715 0.8815828402917715 0.0 -0.0 0.7750680292508737 0.6318777967559605
15 22.95234512340518 52.01491376037898 24.969373246056872 2.671328685405731 0.8904428951352432 0.8904428951352432 0.0 0.0 0.6340811782098568 0.7732664866913604
16 15.938673786505621 37.12617235151972 53.57293494069923 2.6981759850308125 0.8993919950102645 0.8993919950102645 0.0 -0.0 0.7629176367612683 0.6464956918020424
17 29.398195896835716 19.531682199320073 36.11226702807045 2.7252931045028457 0.9084310348342788 0.9084310348342788 0.0 0.0 0.6579222258448839 0.7530858813836
18 40.73419027524287 37.07953559067644 9.623163256631742 2.7526827555564357 0.9175609185188087 0.9175609185188087 0.0 0.0 0.506211649243881 0.8624092799650234
19 13.359907955707 13.252254008121563 42.3651321166145 2.7803476771794933 0.926782559059824 0.926782559059824 0.0 0.0 0.6434542777811493 0.7654845474633303
20 24.980751016348332 56.90653837184481 22.259238855982055 2.80829063588722 0.9360968786290778 0.9360968786290778 0.0 -0.0 0.7861857262579329 0.6179902942832407
21 41.59878709607536 21.260075136522943 46.79860640248728 2.836514425998794 0.9455048086662532 0.9455048086662532 0.0 0.0 0.6069811502172251 0.7947162281474907
22 4.895501466735876 50.05915807258077 46.07945136451652 2.8650218699167005 0.9550072899722413 0.9550072899722413 0.0 -0.0 0.8910647246123514 0.45387625687131333
23 43.85276696442594 5.564371223712263 48.32945068407431 2.8938158184091907 0.9646052728030565 0.9646052728030565 0.0 -0.0 0.7582829367961579 0.651925599868416
24 25.01168629154783 13.532382336163453 52.797074396168384 2.92289915089501 0.9742997169650075 0.9742997169650075 0.0 0.0 0.5255054740936084 0.8507902189715464
25 17.181203244186335 59.99737195837386 2.9483405940320964 2.9522747757316865 0.9840915919105542 0.9840915919105542 0.0 0.0 0.6637035342538496 0.7479957343587923
26 56.65736057259817 10.886405214668411 42.83507918807549 2.9819456305061305 0.9939818768353851 0.9939818768353851 0.0 0.0 0.5361151400853296 0.8441448670526212
27 60.36149224093375 21.55956959525033 20.660882158745213 3.0119146823286225 1.0039715607762196 1.0039715607762196 0.0 -0.0 0.7297620279401082 0.6837012378054764
28 16.092495730023245 44.32299795217716 37.15676086991788 3.0421849281292856 1.014061642709758 1.014061642709758 0.0 -0.0 0.9828164757017253 0.18458541407500267
29 44.66411366621459 30.180117705680846 28.652373507359226 3.0727593949579295 1.0242531316526442 1.0242531316526442 0.0 -0.0 0.8740853421614372 0.4857723897243679
30 18.591267219202937 1.695941478623941 23.69394442694965 3.1036411402867 1.0345470467622346 1.0345470467622346 0.0 -0.0 0.8433777540022546 0.5373210995802349
31 49.55656772329596 40.16542670348299 49.99444368748963 3.134833252315883 1.0449444174386298 1.0449444174386298 0.0 0.0 0.6952778540174372 0.7187410560924617
32 4.634417208895279 41.629269273323764 40.10734832883926 3.166338850282653 1.0554462834275526 1.0554462834275526 0.0 0.0 0.6353234605105568 0.7722461398575527
33 27.214209904533604 18.175709403035746 23.850928118947582 3.198161084773092 1.0660536949243604 1.0660536949243604 0.0 0.0 0.6411270229476993 0.7674347792784871
34 7.876894923958239 19.495557034929014 38.69600081155546 3.2303031380371405 1.0767677126790502 1.0767677126790502 0.0 -0.0 0.7453722743584635 0.6666484625480594
35 31.55592566982024 43.25860469464604 40.81082657422672 3.2627682243069467 1.087589408102319 1.087589408102319 0.0 -0.0 0.7109313362059317 0.7032614273514853
36 30.58873038845175 15.766991866285235 13.51385573893598 3.2955595901181196 1.09851986337271 1.09851986337271 0.0 -0.0 0.739632735620696 0.6730107104632479
37 13.980879892288371 51.22726596329974 19.33840729094239 3.328680514634651 1.1095601715448886 1.1095601715448886 0.0 0.0 0.5163603530767541 0.8563714064414165
38 21.730446435342042 59.026299855913116 11.052302744773037 3.362134309976529 1.1207114366588395 1.1207114366588395 0.0 0.0 0.5145463711011363 0.8574625542766586
39 12.232926182970779 27.81606581446156 27.93425445005826 3.3959243215512176 1.131974773850406 1.131974773850406 0.0 0.0 0.5880831456971182 0.8088004783300898
40 55.85125683130532 25.874213623311554 15.695234344897752 3.4300539283880216 1.1433513094626644 1.1433513094626644 0.0 -0.0 0.8608342640850161 0.5088854191045453
41 56.693556855118516 10.484705161411757 51.431415662002166 3.464526543476009 1.1548421811586704 1.1548421811586704 0.0 0.0 0.5813114541301716 0.8136811373609846
42 13.653794408621827 60.27841724635446 39.61041197743044 3.499345614105482 1.1664485380351606 1.1664485380351606 0.0 0.0 0.6858728758951139 0.7277213739552836
43 1.7114876497892375 6.704360116938915 29.785266332008323 3.5345146222124706 1.1781715407375006 1.1781715407375006 0.0 -0.0 0.8971229945165649 0.4417808650333688
44 37.91500600176822 8.121002450312108 37.469249920858424 3.5700370847271876 1.190012361575719 1.190012361575719 0.0 -0.0 0.7662793896249596 0.6425075073771507
45 23.81381242994117 33.04099073450966 31.091556098112648 3.605916553925327 1.2019721846417748 1.2019721846417748 0.0 -0.0 0.8021859139948743 0.5970743332184094
46 19.784183529591115 33.28368713308552 13.313176136015823 3.6421566177838676 1.2140522059279562 1.2140522059279562 0.0 0.0 0.6689296931602822 0.7433256793683982
47 51.46512563637863 15.976348833869858 15.467924866143488 3.6787609003392863 1.226253633446429 1.226253633446429 0.0 -0.0 0.8121614142020023 0.5834328044268712
48 58.256597039501614 55.92040308666932 20.242998474363667 3.7157330620504196 1.2385776873501408 1.2385776873501408 0.0 0.0 0.43861391052531945 0.8986756019241242
49 21.319558144430545 23.507903592525462 3.7915783042022504 3.753076800164171 1.2510256000547253 1.2510256000547253 0.0 -0.0 0.7611420715427216 0.6485851886434459
50 31.61491386605932 20.088073466959322 52.51529710884189 3.7907958490855185 1.263598616361849 1.263598616361849 0.0 0.0 0.5689873473401131 0.8223462765568174
51 10.48172212311902 21.27788032426945 41.03551075861116 3.8288939807508453 1.2762979935836027 1.2762979935836027 0.0 -0.0 0.9816329176571261 0.1907794930592849
52 35.37709290340375 55.51042430334373 22.96913219971625 3.867375005004925 1.28912500166831 1.28912500166831 0.0 -0.0 0.8312938914163103 0.5558331279205367
53 14.765881916647807 48.75861283379336 9.951989178875564 3.9062427699823474 1.3020809233274595 1.3020809233274595 0.0 0.0 0.4937832216878833 0.8695850332081013
54 32.20793710615123 51.06054158881461 41.89230149442775 3.945501162491995 1.3151670541639955 1.3151670541639955 0.0 -0.0 0.7425013715714329 0.6698445440656666
55 18.56868538356861 47.390100928385735 2.118585802922735 3.945501162491995 1.3151670541639955 1.3151670541639955 0.0 -0.0 0.899222239431846 0.4374921303419936
56 48.03338914270948 10.06411769949933 24.86567069211589 3.985154108405826 1.3283847028019429 1.3283847028019429 0.0 0.0 0.591041689671776 0.8066410112744902
57 53.185366108146404 60.64119229561222 49.20943881648906 3.985154108405826 1.3283847028019429 1.3283847028019429 0.0 0.0 0.6906372933410847 0.7232013060320761
58 39.34276209679871 50.93017717558116 31.71512316081478 4.02520557305146 1.3417351910171498 1.3417351910171498 0.0 -0.0 0.9778925487455288 0.20910801779935065
59 30.43776783865973 56.91998256735735 25.885845475991722 4.02520557305146 1.3417351910171498 1.3417351910171498 0.0 -0.0 0.8334397726994561 0.5526103014626843
60 39.25863652789009 28.43816738577303 0.8581739188429156 4.065659561608764 1.3552198538695872 1.3552198538695872 0.0 -0.0 0.8251393648538317 0.5649292243888745
61 8.462285576141529 37.596739541546405 37.1171426883261 4.065659561608764 1.3552198538695872 1.3552198538695872 0.0 -0.0 0.8342848482439009 0.5513336485202505
62 12.189919219916781 45.44307256866781 27.373021272972274 4.106520119510255 1.3688400398367526 1.3688400398367526 0.0 0.0 0.6993489688984815 0.7147803996337831
63 36.48538915013959 52.995286636426805 54.22602812769312 4.106520119510255 1.3688400398367526 1.3688400398367526 0.0 0.0 0.6638694557235675 0.747848477806363
64 37.51971110569449 50.70786554957589 43.275275971862584 4.147791332845885 1.38259711094862 1.38259711094862 0.0 0.0 0.5469534661185369 0.8371630103515794
65 23.367838876147466 13.09172585013685 6.837965055122638 4.147791332845885 1.38259711094862 1.38259711094862 0.0 0.0 0.534266604389083 0.8453160328744268
66 40.517263684904876 16.20629427883149 17.832378333428977 4.1894773287712255 1.3964924429237433 1.3964924429237433 0.0 0.0 0.49259387534365895 0.8702593142126752
67 60.17003939576559 10.082626969478387 13.589959828802009 4.1894773287712255 1.3964924429237433 1.3964924429237433 0.0 -0.0 0.7991221049958454 0.6011687461162707
68 36.25603461428909 26.936027245723114 17.016618691273344 4.231582275920679 1.4105274253069033 1.4105274253069033 0.0 -0.0 0.8113628171424923 0.5845428803420658
69 42.06843177222127 8.370062714095246 56.80150898152572 4.231582275920679 1.4105274253069033 1.4105274253069033 0.0 0.0 0.69974083585519 0.7143967823532522
70 50.58322591252865 52.2842321798434 25.121172538393594 4.2741103848241195 1.424703461608029 1.424703461608029 0.0 -0.0 0.9226100212719841 0.3857340387475665
71 29.442274451413226 20.975734412164535 26.146508298435883 4.2741103848241195 1.424703461608029 1.424703461608029 0.0 -0.0 0.8908476943010929 0.4543020862360491
72 3.2068027486463326 46.0523118961888 7.894727256050567 4.317065908327788 1.4390219694425912 1.4390219694425912 0.0 -0.0 0.9180976465577227 0.39635427509384946
73 53.2017321689625 20.147064511193207 38.730393280730084 4.317065908327788 1.4390219694425912 1.4390219694425912 0.0 0.0 0.6852526383261238 0.7283054453092375
74 59.1200408003325 44.3480733981814 15.435928733254904 4.360453142019838 1.453484380673283 1.453484380673283 0.0 0.0 0.6622208999947843 0.7493086677799063
75 54.652272273531125 5.935517453184541 28.441387005750887 4.360453142019838 1.453484380673283 1.453484380673283 0.0 0.0 0.6669694181073614 0.7450850926636016
76 5.237985504780287 12.284389848604256 21.374031079920673 4.404276424659792 1.4680921415532793 1.4680921415532793 0.0 0.0 0.4849872773235938 0.8745212066235144
77 17.141978956578967 49.158754987749454 6.693136371503492 4.404276424659792 1.4680921415532793 1.4680921415532793 0.0 -0.0 0.724549744492829 0.6892225096116464
78 8.273351513817046 5.576847426409092 7.1040070357161085 4.448540138612497 1.4828467128708323 1.4828467128708323 0.0 0.0 0.646327957303847 0.7630597431442944
79 3.042791926131539 27.32000811974098 18.97147803164688 4.448540138612497 1.4828467128708323 1.4828467128708323 0.0 0.0 0.4210348644808628 0.9070444547493698
80 51.91203679097785 20.789832398301048 20.368759720926725 4.493248710286194 1.4977495700953876 1.4977495700953876 0.0 0.0 0.5786941501693628 0.8155446527074768
81 5.945044867758577 59.44253911525715 40.03653746548589 4.493248710286194 1.4977495700953876 1.4977495700953876 0.0 0.0 0.683142879342022 0.730284743373632
82 14.20863165764495 12.71114273381498 60.088026972245004 4.538406610575277 1.5128022035250839 1.5128022035250839 0.0 0.0 0.3480344086077516 0.937481760049257
83 16.61359961273854 13.62711836430579 4.453533419067033 4.538406610575277 1.5128022035250839 1.5128022035250839 0.0 -0.0 0.8280938516825816 0.560589486884571
84 31.45418021120524 34.13092617449714 20.304373329683138 4.584018355307454 1.528006118435825 1.528006118435825 0.0 -0.0 0.8521868438699086 0.5232375972109076
85 16.09099093172104 39.15847264339925 26.10640197990517 4.584018355307454 1.528006118435825 1.528006118435825 0.0 0.0 0.2683204071818837 0.9633297250109892
86 12.07217708748706 39.30257664373665 57.5853068617458 4.630088505695164 1.5433628352317355 1.5433628352317355 0.0 0.0 0.5717525694490604 0.8204261083902665
87 24.71331227238978 11.291067570298596 39.16250080307365 4.630088505695164 1.5433628352317355 1.5433628352317355 0.0 -0.0 0.7407334016199733 0.6717990977401677
88 23.000303065036583 45.36848745773048 55.783446335678555 4.676621668791909 1.5588738895972936 1.5588738895972936 0.0 0.0 0.6524446383875427 0.7578363898885753
89 9.60110506095578 25.103707115574476 36.82915031773437 4.676621668791909 1.5588738895972936 1.5588738895972936 0.0 0.0 0.3815125934194192 0.9243636411404275
90 14.077423342036324 6.312731425615586 44.97023802080712 4.723622497952711 1.5745408326508925 1.5745408326508925 0.0 -0.0 0.7664413141092511 0.642314340511314
91 36.468748770882634 4.5053000981589415 34.49005867457002 4.723622497952711 1.5745408326508925 1.5745408326508925 0.0 -0.0 0.7164030651197486 0.6976866404676452
92 56.21594209223852 24.254545786534315 42.0156825164553 4.771095693299648 1.5903652310998802 1.5903652310998802 0.0 0.0 0.3159382626609752 0.9487797500931208
93 22.511429578393475 39.66987448621883 42.19886258388323 4.771095693299648 1.5903652310998802 1.5903652310998802 0.0 -0.0 0.807675111463051 0.5896277760783901
94 54.0963502222112 9.637746724208839 46.91678015008742 4.81904600219187 1.6063486673973018 1.6063486673973018 0.0 0.0 0.5856043209472178 0.8105970511221638
95 45.05830538038433 27.44636368537723 53.648248071849764 4.81904600219187 1.6063486673973018 1.6063486673973018 0.0 -0.0 0.8283891439806925 0.5601530381377355
96 36.08510017586868 4.136719823247166 39.26554870246433 4.867478219700167 1.6224927399000737 1.6224927399000737 0.0 0.0 0.6380161188650698 0.7700230074928626
97 15.574330327278137 27.058901809188264 27.63105095199891 4.867478219700167 1.6224927399000737 1.6224927399000737 0.0 0.0 0.5652655734899162 0.8249089837231233
98 24.209724828760788 20.28835719882796 39.407507346587025 4.916397189086727 1.638799063028914 1.638799063028914 0.0 -0.0 0.9884337224668884 0.15165347437579585
99 47.953875309529664 27.371673320230123 11.439022687088027 4.916397189086727 1.638799063028914 1.638799063028914 0.0 0.0 0.644584962479319 0.7645326848117973
100 34.919166038912024 29.93232687023591 53.72352963283909 4.965807802289192 1.655269267429726 1.655269267429726 0.0 -0.0 0.7665764345255346 0.6421530736748979
101 17.019932538773336 33.31065079935002 59.72032045056273 4.965807802289192 1.655269267429726 1.655269267429726 0.0 -0.0 0.7486465484609144 0.6629693397718779
102 43.632301502204086 26.83050554934274 13.80427325098629 5.0157150004100455 1.6719050001366844 1.6719050001366844 0.0 -0.0 0.764238184631255 0.644934102952793
103 28.371625300788033 21.900553704372676 10.322921304548714 5.0157150004100455 1.6719050001366844 1.6719050001366844 0.0 -0.0 0.7262700822056904 0.6874094614514261
104 41.81604397064236 48.24712547533321 43.591253491971685 5.066123774210791 1.6887079247369086 1.6887079247369086 0.0 0.0 0.6864264585310771 0.7271992278794606
105 19.752178223075916 1.3439660400820594 20.456088626412416 5.066123774210791 1.6887079247369086 1.6887079247369086 0.0 -0.0 0.8498704758576332 0.5269916263713497
106 16.064323697724134 19.72607973457002 54.64082301273942 5.117039164610658 1.7056797215368866 1.7056797215368866 0.0 -0.0 0.793590538753224 0.6084521811953406
107 46.12034670221202 1.1701301691874397 18.61504945662178 5.117039164610658 1.7056797215368866 1.7056797215368866 0.0 -0.0 0.8299364941277125 0.5578578812878792
108 55.35917748248202 2.790902902675484 2.8129896727644104 5.168466263191243 1.7228220877303944 1.7228220877303944 0.0 -0.0 0.7596155095013813 0.650372414640225
109 9.434585242624687 4.359182127829199 50.45901711334305 5.168466263191243 1.7228220877303944 1.7228220877303944 0.0 -0.0 0.746179639226726 0.6657446552571586
110 33.22853649633952 3.1217565502322553 45.97397343320585 5.220410212705187 1.740136737568375 1.740136737568375 0.0 -0.0 0.7434755474029917 0.6687631198068729
111 39.72354946967716 59.09352306577839 15.072093794393886 5.220410212705187 1.740136737568375 1.740136737568375 0.0 -0.0 0.7635489887521677 0.6457499065238353
112 47.64302920975782 3.0159358724659784 26.628316680326172 5.272876207590721 1.7576254025302611 1.7576254025302611 0.0 -0.0 0.925703395166632 0.3782502137170186
113 13.285134920276718 11.083690975487455 23.26635756172646 5.272876207590721 1.7576254025302611 1.7576254025302611 0.0 -0.0 0.7476030998596368 0.6641457709571461
114 2.994198500681796 23.55106789422832 37.15843490238605 5.325869494491154 1.7752898314970518 1.7752898314970518 0.0 -0.0 0.7095009508808979 0.7047044775642494
115 26.362337053473208 45.813021814118855 60.23840510716454 5.325869494491154 1.7752898314970518 1.7752898314970518 0.0 0.0 0.692332939305712 0.7215782016887105
116 19.331697088314293 17.680183121524 49.83269289280265 5.379395372779299 1.7931317909264142 1.7931317909264142 0.0 0.0 0.4838188577050026 0.8751681626573412
117 4.303370168815156 36.71139279744884 30.186324225011013 5.379395372779299 1.7931317909264142 1.7931317909264142 0.0 0.0 0.4072390243389004 0.9133216175343166
118 44.32035302170968 8.470266316385922 2.024221844784358 5.433459195087487 1.8111530650291636 1.8111530650291636 0.0 -0.0 0.9854258972554679 0.17010526452245991
119 31.209266556546254 28.74935726196089 3.884790493675376 5.433459195087487 1.8111530650291636 1.8111530650291636 0.0 0.0 0.693566054094668 0.720393037589587
120 39.93770390409073 41.84911170035884 34.68410651588624 5.488066367843122 1.8293554559477088 1.8293554559477088 0.0 -0.0 0.8546373086497397 0.5192254526349123
121 58.751330974175204 23.289634199334454 58.7681912344562 5.488066367843122 1.8293554559477088 1.8293554559477088 0.0 -0.0 0.738138054050796 0.6746496966293722
122 49.85972851243434 31.837482225370316 52.46814933577333 5.5432223518089625 1.8477407839363327 1.8477407839363327 0.0 0.0 0.30497028615780525 0.9523618663936657
123 40.85416785273269 37.99961514808575 43.73849780649567 5.5432223518089625 1.8477407839363327 1.8477407839363327 0.0 -0.0 0.8240326158671573 0.5665423620411186
124 42.94260426551375 38.853332433059094 55.523005882287 5.598932662629394 1.866310887543124 1.866310887543124 0.0 -0.0 0.7351480847541838 0.6779065521753388
125 28.432319704866774 39.29124985968477 42.4999478716306 5.598932662629394 1.866310887543124 1.866310887543124 0.0 0.0 0.6354145425399089 0.7721711980699606
126 31.258167414099784 19.567161271325283 44.600675060342 5.655202871381818 1.885067623793924 1.885067623793924 0.0 -0.0 0.9631928649301144 0.2688112812880415
127 3.781324205537712 30.843924603326112 47.04101239654546 5.655202871381818 1.885067623793924 1.885067623793924 0.0 0.0 0.6645731125154195 0.7472232451694524
128 13.978090299521606 45.65373060381429 49.2821584046352 5.712038605134005 1.9040128683779998 1.9040128683779998 0.0 -0.0 0.837305869343264 0.5467347447925007
129 43.32928186925916 36.2230174942883 3.2597914691046874 5.712038605134005 1.9040128683779998 1.9040128683779998 0.0 0.0 0.6718759690179156 0.7406636768846148
130 34.893252282128 53.141974086511155 5.68710076518082 5.769445547506879 1.9231485158356119 1.9231485158356119 0.0 -0.0 0.8172568989423515 0.5762735124323614
131 8.797031643066422 21.165600603891495 52.882080858202485 5.769445547506879 1.9231485158356119 1.9231485158356119 0.0 0.0 0.5650588956672867 0.8250505708302167
132 32.61610890496601 49.19131110257139 58.665333098986096 5.827429439242338 1.9424764797474214 1.9424764797474214 0.0 0.0 0.5632303093681869 0.8262999568008076
133 30.468717187728487 58.85696216465309 37.24031934824053 5.827429439242338 1.9424764797474214 1.9424764797474214 0.0 0.0 0.7047758212396541 0.7094300823872436
134 55.019679231134766 37.18205935322361 45.975822864980685 5.885996078777874 1.961998692925948 1.961998692925948 0.0 -0.0 0.7457546235329385 0.6662207152882933
135 52.90588907781571 0.2408450916402817 60.82727277180198 5.885996078777874 1.961998692925948 1.961998692925948 0.0 0.0 0.5807371118896761 0.8140911539097067
136 17.304693998474676 49.850121963698385 60.42252336257644 5.945151322826374 1.9817171076087992 1.9817171076087992 0.0 -0.0 0.7765636880913803 0.6300387593933514
137 56.721625402338596 47.427855527284066 30.92268147777887 5.945151322826374 1.9817171076087992 1.9817171076087992 0.0 -0.0 0.9207785641385271 0.39008567754147583
138 42.07676323362799 27.17636431300184 18.588254510276382 6.00490108696142 2.0016336956538066 2.0016336956538066 0.0 0.0 0.5933031767685688 0.8049790931672228
139 48.75092987963958 22.896631796538873 58.70570957694319 6.00490108696142 2.0016336956538066 2.0016336956538066 0.0 0.0 0.36293328461656904 0.9318151270061183
140 3.1511075124545576 6.046588446587252 36.61549594487047 6.0652513462093305 2.021750448736437 2.021750448736437 0.0 0.0 0.5657838974393875 0.8245535649054563
141 3.0012614217349904 45.655827838278285 51.28175779007884 6.0652513462093305 2.021750448736437 2.021750448736437 0.0 0.0 0.5898626798291705 0.8075035720941112
142 1.7675852531739413 37.72327504944365 0.5173119795908494 6.126208135646135 2.0420693785487303 2.0420693785487303 0.0 0.0 0.494526605223718 0.8691624915548904
143 30.083082134878392 17.443822763349136 5.813451017992239 6.126208135646135 2.0420693785487303 2.0420693785487303 0.0 0.0 0.6621201748514545 0.7493976741721844
144 15.564974090574442 33.00053185040371 47.05276257746182 6.187777551001803 2.062592517000608 2.062592517000608 0.0 -0.0 0.8358120424685423 0.5490156916378287
145 58.9855153093835 42.45687759024713 20.20887337580297 6.187777551001803 2.062592517000608 2.062592517000608 0.0 -0.0 0.7380766977143534 0.6747168208152773
146 33.40884882719516 51.16649430655334 51.193995848923144 6.249965749269044 2.083321916423015 2.083321916423015 0.0 0.0 0.5600689403365469 0.8284460043179022
147 38.357501171907586 21.56477908898568 43.990330470184105 6.249965749269044 2.083321916423015 2.083321916423015 0.0 -0.0 0.8053653384335279 0.5927787712543771
148 59.49729709438475 31.390604558769347 51.436621797727184 6.312778949319525 2.1042596497731605 2.1042596497731605 0.0 -0.0 0.9475491048281723 0.31961022189430877
149 53.08448154315517 16.241525586833664 26.940427935887527 6.312778949319525 2.1042596497731605 2.1042596497731605 0.0 -0.0 0.8855269061838191 0.46458809543994295
150 26.461514487719732 7.452017644720819 17.571890189122072 6.376223432525616 2.1254078108418737 2.1254078108418737 0.0 -0.0 0.8997163709941051 0.43647502994466686
151 33.584662186057116 31.74375926506707 38.02955859105772 6.376223432525616 2.1254078108418737 2.1254078108418737 0.0 0.0 0.6949034215940625 0.7191030765174521
152 56.43677479583714 32.939091586624556 12.715368976897704 6.440305543388489 2.1467685144628077 2.1467685144628077 0.0 0.0 0.6496096252583186 0.7602679361723385
153 28.32746982337892 60.78368812955183 5.148811802377683 6.440305543388489 2.1467685144628077 2.1467685144628077 0.0 0.0 0.6980264017745981 0.7160720232110785
154 53.7806834849582 10.205472140152203 7.422769590576644 6.505031690172591 2.1683438967242026 2.1683438967242026 0.0 -0.0 0.9126309719920443 0.4087844284716046
155 20.353406669283135 36.89397374455717 4.783849407779815 6.505031690172591 2.1683438967242026 2.1683438967242026 0.0 0.0 0.34897032679986184 0.9371337743423815
156 21.9874475573096 27.890268447581303 53.61818692415112 6.57040834554661 2.1901361151822143 2.1901361151822143 0.0 0.0 0.6995675014656925 0.7145665195718649
157 21.433057281407216 29.75845997587892 46.27840772025223 6.57040834554661 2.1901361151822143 2.1901361151822143 0.0 0.0 0.63565327495599 0.7719746848425306
158 47.20215771006146 11.73308297576999 43.56009571856776 6.63644204723058 2.2121473490768575 2.2121473490768575 0.0 -0.0 0.7426985308561326 0.6696259345814963
159 11.641375214659046 26.66023049858324 7.628112192498687 6.63644204723058 2.2121473490768575 2.2121473490768575 0.0 0.0 0.4891044501540252 0.8722252213961303
160 51.279117268324995 32.59597977307463 21.77425018370944 6.703139398649646 2.234379799549892 2.234379799549892 0.0 0.0 0.6466947184788655 0.7627489371290798
161 33.15208053245645 15.97170488069806 35.86318724736318 6.703139398649646 2.234379799549892 2.234379799549892 0.0 0.0 0.6377575578887067 0.7702371695496348
162 21.30337321905778 15.097735941627136 11.419170247648491 6.7705070695945775 2.2568356898648485 2.2568356898648485 0.0 0.0 0.6701572236966805 0.7422191694689361
163 41.033676542801345 57.39428580463045 38.361490814432685 6.7705070695945775 2.2568356898648485 2.2568356898648485 0.0 -0.0 0.7797338016261434 0.6261111711203069
164 50.94184291050416 47.29794714287084 32.904844057093726 6.838551796888502 2.2795172656295004 2.2795172656295004 0.0 0.0 0.6966086930688543 0.7174512727293072
165 40.44016775506474 20.547013247383287 38.66408983261666 6.838551796888502 2.2795172656295004 2.2795172656295004 0.0 -0.0 0.8994069955971553 0.43711217813153935
6_B 27.263027706763268 62.4724589356085 20.70766909059475 2.4414105917018984 0.8138035305673055 0.8138035305673055 0.0 0.0 0.643710445538684 0.7652691437033046
7_B 40.86812409565735 61.7637820026451 26.31352988973668 2.465947176069569 0.821982392023193 0.821982392023193 0.0 -0.0 0.7603958793842515 0.6494598575858641
9_T 47.995247163931936 -1.5155779378085654 52.50946610170339 2.5157626134613733 0.8385875378204593 0.8385875378204593 0.0 -0.0 0.7176002965020949 0.6964551776389529
25_T 17.181203244186335 -0.9026280416261372 2.9483405940320964 2.9522747757316865 0.9840915919105542 0.9840915919105542 0.0 0.0 0.6637035342538496 0.7479957343587923
27_L -0.538507759066249 21.55956959525033 20.660882158745213 3.0119146823286225 1.0039715607762196 1.0039715607762196 0.0 -0.0 0.7297620279401082 0.6837012378054764
30_B 18.591267219202937 62.59594147862394 23.69394442694965 3.1036411402867 1.0345470467622346 1.0345470467622346 0.0 -0.0 0.8433777540022546 0.5373210995802349
38_T 21.730446435342042 -1.8737001440868823 11.052302744773037 3.362134309976529 1.1207114366588395 1.1207114366588395 0.0 0.0 0.5145463711011363 0.8574625542766586
42_T 13.653794408621827 -0.6215827536455407 39.61041197743044 3.499345614105482 1.1664485380351606 1.1664485380351606 0.0 0.0 0.6858728758951139 0.7277213739552836
43_R 62.61148764978924 6.704360116938915 29.785266332008323 3.5345146222124706 1.1781715407375006 1.1781715407375006 0.0 -0.0 0.8971229945165649 0.4417808650333688
57_T 53.185366108146404 -0.25880770438777745 49.20943881648906 3.985154108405826 1.3283847028019429 1.3283847028019429 0.0 0.0 0.6906372933410847 0.7232013060320761
60_Ba 39.25863652789009 28.43816738577303 61.758173918842914 4.065659561608764 1.3552198538695872 1.3552198538695872 0.0 -0.0 0.8251393648538317 0.5649292243888745
67_L -0.7299606042344067 10.082626969478387 13.589959828802009 4.1894773287712255 1.3964924429237433 1.3964924429237433 0.0 -0.0 0.7991221049958454 0.6011687461162707
79_R 63.942791926131534 27.32000811974098 18.97147803164688 4.448540138612497 1.4828467128708323 1.4828467128708323 0.0 0.0 0.4210348644808628 0.9070444547493698
81_T 5.945044867758577 -1.4574608847428507 40.03653746548589 4.493248710286194 1.4977495700953876 1.4977495700953876 0.0 0.0 0.683142879342022 0.730284743373632
82_F 14.20863165764495 12.71114273381498 -0.8119730277549948 4.538406610575277 1.5128022035250839 1.5128022035250839 0.0 0.0 0.3480344086077516 0.937481760049257
91_B 36.468748770882634 65.40530009815895 34.49005867457002 4.723622497952711 1.5745408326508925 1.5745408326508925 0.0 -0.0 0.7164030651197486 0.6976866404676452
96_B 36.08510017586868 65.03671982324717 39.26554870246433 4.867478219700167 1.6224927399000737 1.6224927399000737 0.0 0.0 0.6380161188650698 0.7700230074928626
101_F 17.019932538773336 33.31065079935002 -1.1796795494372674 4.965807802289192 1.655269267429726 1.655269267429726 0.0 -0.0 0.7486465484609144 0.6629693397718779
105_B 19.752178223075916 62.24396604008206 20.456088626412416 5.066123774210791 1.6887079247369086 1.6887079247369086 0.0 -0.0 0.8498704758576332 0.5269916263713497
107_B 46.12034670221202 62.070130169187436 18.61504945662178 5.117039164610658 1.7056797215368866 1.7056797215368866 0.0 -0.0 0.8299364941277125 0.5578578812878792