ITEM: TIMESTEP
455
ITEM: NUMBER OF ATOMS
248
ITEM: BOX BOUNDS ff ff ff
0 60.9
60.9 0
60.9 0
ITEM: ATOMS id x y z AsphericalShapeX AsphericalShapeY AsphericalShapeZ OrientationX OrientationY OrientationZ OrientationW
1 47.12311443700105 43.52204078563201 19.99562214548483 3.2188077994049915 1.0729359331350021 1.0729359331350021 0.0 -0.0 0.7863642711635499 0.6177630881150306
2 11.848919943068214 15.653996716540764 23.529851165918046 3.2511573556008337 1.0837191185335933 1.0837191185335933 0.0 -0.0 0.8896314041555925 0.4566792799549252
3 9.047611467227345 20.094107951488443 58.52833078383949 3.2838320302414954 1.0946106767471748 1.0946106767471748 0.0 0.0 0.631512325711268 0.7753658378305981
4 21.241918676845263 48.085158515695376 45.32197568416264 3.316835090821817 1.1056116969405985 1.1056116969405985 0.0 0.0 0.5765741652112841 0.8170448164029381
5 44.139945005242566 10.080395107215537 13.730711304993397 3.3501698376752063 1.1167232792250608 1.1167232792250608 0.0 -0.0 0.8873914294477543 0.4610167577677315
6 29.276008412886956 2.5046575848862735 20.034987251970918 3.3838396043041685 1.1279465347680622 1.1279465347680622 0.0 0.0 0.643710445538684 0.7652691437033046
7 31.61706508522461 59.92938046175464 31.1837367413827 3.4178477577134454 1.1392825859044837 1.1392825859044837 0.0 -0.0 0.7603958793842515 0.6494598575858641
8 43.71426971170572 34.8250470565013 16.67102797466801 3.4521976987466965 1.1507325662489076 1.1507325662489076 0.0 -0.0 0.7854601334426244 0.6189122545016335
9 49.1083924602848 60.63024709396016 51.367013016514065 3.48689286242671 1.1622976208089049 1.1622976208089049 0.0 -0.0 0.7176002965020949 0.6964551776389529
10 54.15772900098434 6.517111809833965 11.441733231207744 3.521936718298689 1.1739789060995673 1.1739789060995673 0.0 0.0 0.38534345666417513 0.9227732226317065
11 31.9366452286417 34.274658033508594 0.5635309994525795 3.5573327707774487 1.185777590259149 1.185777590259149 0.0 0.0 0.49983922045674145 0.866118209999765
12 59.94635044574556 10.357730191240032 25.494478919551398 3.5930845594977083 1.1976948531659128 1.1976948531659128 0.0 0.0 0.2746680171135514 0.9615391205639581
13 5.334159162110265 53.86224266468152 15.866276743426674 3.629195659668275 1.2097318865560764 1.2097318865560764 0.0 -0.0 0.7886508549344257 0.614841303924191
14 17.465575827741603 37.70366945842698 25.08976335052988 3.665669682429055 1.2218898941429985 1.2218898941429985 0.0 -0.0 0.7750680292508737 0.6318777967559605
15 25.86788394514784 41.374574863887815 24.552136358292167 3.7025102752127896 1.2341700917376104 1.2341700917376104 0.0 0.0 0.6340811782098568 0.7732664866913604
16 14.233191279800142 30.154827097446738 53.75779802641145 3.7397211221095965 1.2465737073698497 1.2465737073698497 0.0 -0.0 0.7629176367612683 0.6464956918020424
17 25.71246148814649 19.043683860462675 37.47486171452863 3.777305944234963 1.2591019814116418 1.2591019814116418 0.0 0.0 0.6579222258448839 0.7530858813836
18 40.50345080579519 37.97924990323487 15.510428534595231 3.815268500102553 1.2717561667008384 1.2717561667008384 0.0 0.0 0.506211649243881 0.8624092799650234
19 24.54237125752295 15.840866366049909 41.65729483555355 3.85361258599956 1.2845375286665035 1.2845375286665035 0.0 0.0 0.6434542777811493 0.7654845474633303
20 30.619533888961595 1.1971125304753416 35.97143773869775 3.8923420363664976 1.2974473454555036 1.2974473454555036 0.0 -0.0 0.7861857262579329 0.6179902942832407
21 44.47328934674326 20.57542043007586 43.605169366756705 3.9314607241807034 1.3104869080602135 1.3104869080602135 0.0 0.0 0.6069811502172251 0.7947162281474907
22 12.165919844705956 59.11927876417749 31.58375090052541 3.970972561343507 1.3236575204478358 1.3236575204478358 0.0 -0.0 0.8910647246123514 0.45387625687131333
23 40.49723236302556 50.120035567700015 45.93130710583103 4.010881499071708 1.3369604996905706 1.3369604996905706 0.0 -0.0 0.7582829367961579 0.651925599868416
24 31.183821113091412 59.720879611694855 49.422307076763545 4.05119152829217 1.3503971760973867 1.3503971760973867 0.0 0.0 0.5255054740936084 0.8507902189715464
25 16.933872328600835 55.47286394249922 50.155939976734814 4.091906680041505 1.363968893347151 1.363968893347151 0.0 0.0 0.6637035342538496 0.7479957343587923
26 57.798695423427326 60.557996437651916 25.482101760689964 4.133031025868668 1.3776770086229047 1.3776770086229047 0.0 0.0 0.5361151400853296 0.8441448670526212
27 0.059270506550003196 17.757525470463307 23.759492329997318 4.174568678242702 1.3915228927475765 1.3915228927475765 0.0 -0.0 0.7297620279401082 0.6837012378054764
28 26.174538390468786 31.067596150280778 38.48441920925742 4.216523790963382 1.40550793032112 1.40550793032112 0.0 -0.0 0.9828164757017253 0.18458541407500267
29 45.40446267494657 29.64871885723704 30.176177890209463 4.258900559576946 1.4196335198589978 1.4196335198589978 0.0 -0.0 0.8740853421614372 0.4857723897243679
30 17.46021150043758 3.2085501444338784 31.78828791123039 4.301703221795547 1.4339010739318645 1.4339010739318645 0.0 -0.0 0.8433777540022546 0.5373210995802349
31 51.57438754331809 53.280111478090966 40.2146610462304 4.344936057921089 1.4483120193070504 1.4483120193070504 0.0 0.0 0.6952778540174372 0.7187410560924617
32 56.95531911822135 33.71004663220963 33.184224732458546 4.3886033912732225 1.4628677970910886 1.4628677970910886 0.0 0.0 0.6353234605105568 0.7722461398575527
33 26.74682795364604 26.893265801689815 26.358109907747373 4.432709588621678 1.4775698628738825 1.4775698628738825 0.0 0.0 0.6411270229476993 0.7674347792784871
34 21.38870463994588 10.61384925853578 25.175601343322832 4.477259060622893 1.4924196868743196 1.4924196868743196 0.0 -0.0 0.7453722743584635 0.6666484625480594
35 25.140438673959476 49.836264327835146 42.32253043813895 4.52225626226129 1.5074187540871078 1.5074187540871078 0.0 -0.0 0.7109313362059317 0.7032614273514853
36 36.694002957070204 4.277316909405983 60.19085086521392 4.567705693294399 1.5225685644314886 1.5225685644314886 0.0 -0.0 0.739632735620696 0.6730107104632479
37 23.46728917871599 57.735048148156785 20.710011470031017 4.61361189870336 1.537870632901135 1.537870632901135 0.0 0.0 0.5163603530767541 0.8563714064414165
38 18.33405047671305 2.6769103528464195 21.360994766136397 4.6599794691468155 1.553326489715592 1.553326489715592 0.0 0.0 0.5145463711011363 0.8574625542766586
39 15.504690701109926 19.801767423359507 28.83691521174988 4.706813041420532 1.568937680473511 1.568937680473511 0.0 0.0 0.5880831456971182 0.8088004783300898
40 59.93950780664594 30.143349828556225 15.120027519157967 4.754117298920799 1.5847057663069142 1.5847057663069142 0.0 -0.0 0.8608342640850161 0.5088854191045453
41 18.3223852671618 14.996676035595621 32.06480647122449 4.801896972112645 1.6006323240375395 1.6006323240375395 0.0 0.0 0.5813114541301716 0.8136811373609846
42 15.750253387412556 11.526028672306055 41.60163421809121 4.850156839003308 1.6167189463344476 1.6167189463344476 0.0 0.0 0.6858728758951139 0.7277213739552836
43 4.948372673607367 59.21631689124001 33.98666263615747 4.898901725619738 1.6329672418732442 1.6329672418732442 0.0 -0.0 0.8971229945165649 0.4417808650333688
44 42.902327722157146 16.26153717585915 31.98768660974596 4.948136506491155 1.6493788354970356 1.6493788354970356 0.0 -0.0 0.7662793896249596 0.6425075073771507
45 40.96673226318301 41.604043371891954 37.56161022887988 4.997866105136661 1.6659553683788726 1.6659553683788726 0.0 -0.0 0.8021859139948743 0.5970743332184094
46 16.7060878359078 36.35599625787778 13.492396311930234 5.048095494557538 1.6826984981858604 1.6826984981858604 0.0 0.0 0.6689296931602822 0.7433256793683982
47 50.502019785575165 26.288839863031228 13.726940046227195 5.098829697734694 1.6996098992448982 1.6996098992448982 0.0 -0.0 0.8121614142020023 0.5834328044268712
48 0.3629585075364926 57.4268588611864 14.718682783072094 5.150073788130675 1.7166912627102262 1.7166912627102262 0.0 0.0 0.43861391052531945 0.8986756019241242
49 22.767466937793326 11.31802015924626 5.86144623200815 5.2018328901971485 1.7339442967323937 1.7339442967323937 0.0 -0.0 0.7611420715427216 0.6485851886434459
50 32.41418207742266 11.909298402574734 57.31247128406251 5.254112179887561 1.7513707266291803 1.7513707266291803 0.0 0.0 0.5689873473401131 0.8223462765568174
51 52.05930700267069 25.17775299897754 39.855713864845015 5.306916885174435 1.7689722950581235 1.7689722950581235 0.0 -0.0 0.9816329176571261 0.1907794930592849
52 32.09410044776833 37.32975721877682 27.674491058670814 5.360252286572226 1.7867507621907173 1.7867507621907173 0.0 -0.0 0.8312938914163103 0.5558331279205367
53 11.852800254744198 57.602620139677136 5.463586120055666 5.41412371766549 1.8047079058885256 1.8047079058885256 0.0 0.0 0.4937832216878833 0.8695850332081013
54 31.877225494619537 56.488592615684816 42.474382243550046 5.468536565642389 1.8228455218807935 1.8228455218807935 0.0 -0.0 0.7425013715714329 0.6698445440656666
55 19.46598163165501 37.96384151418206 10.435697293512474 5.468536565642389 1.8228455218807935 1.8228455218807935 0.0 -0.0 0.899222239431846 0.4374921303419936
56 36.6384102378435 9.216249186065754 24.035401670601427 5.5234962718329985 1.8411654239443243 1.8411654239443243 0.0 0.0 0.591041689671776 0.8066410112744902
57 52.90138371246418 59.96378517432076 54.86855291260298 5.5234962718329985 1.8411654239443243 1.8411654239443243 0.0 0.0 0.6906372933410847 0.7232013060320761
58 30.869529066842805 42.89120696972615 31.44932703166893 5.579008332253685 1.859669444084558 1.859669444084558 0.0 -0.0 0.9778925487455288 0.20910801779935065
59 28.83125751225515 48.81989197343149 27.427731205956366 5.579008332253685 1.859669444084558 1.859669444084558 0.0 -0.0 0.8334397726994561 0.5526103014626843
60 42.81484160082871 27.795904535377108 55.28408248565835 5.635078298156883 1.8783594327189415 1.8783594327189415 0.0 -0.0 0.8251393648538317 0.5649292243888745
61 11.69243606730505 51.374067858742 38.69305069518227 5.635078298156883 1.8783594327189415 1.8783594327189415 0.0 -0.0 0.8342848482439009 0.5513336485202505
62 19.142564911089245 0.7574770641324241 44.484563237344574 5.691711776585693 1.89723725886188 1.89723725886188 0.0 0.0 0.6993489688984815 0.7147803996337831
63 36.73183912290099 0.7872559811151939 50.50125621830887 5.691711776585693 1.89723725886188 1.89723725886188 0.0 0.0 0.6638694557235675 0.747848477806363
64 40.61381216639331 29.947880766740024 42.310210481287925 5.7489144309353435 1.9163048103117728 1.9163048103117728 0.0 0.0 0.5469534661185369 0.8371630103515794
65 20.32889359931911 10.322642901428326 2.21171143102646 5.7489144309353435 1.9163048103117728 1.9163048103117728 0.0 0.0 0.534266604389083 0.8453160328744268
66 28.43893201169925 7.709753232483822 32.20421363385629 5.8066919815187275 1.935563993839596 1.935563993839596 0.0 0.0 0.49259387534365895 0.8702593142126752
67 60.55584415649189 30.88675989606553 8.47433794316542 5.8066919815187275 1.935563993839596 1.935563993839596 0.0 -0.0 0.7991221049958454 0.6011687461162707
68 40.90413905970443 38.76742832932482 23.02135160734378 5.8650502061393395 1.9550167353797903 1.9550167353797903 0.0 -0.0 0.8113628171424923 0.5845428803420658
69 37.28536469816104 16.89035328981428 58.141126675556194 5.8650502061393395 1.9550167353797903 1.9550167353797903 0.0 0.0 0.69974083585519 0.7143967823532522
70 7.89456968844413 53.661748641248714 21.66138259518978 5.9239949406680905 1.9746649802226766 1.9746649802226766 0.0 -0.0 0.9226100212719841 0.3857340387475665
71 27.014221636110076 55.77595799600451 26.00113356770718 5.9239949406680905 1.9746649802226766 1.9746649802226766 0.0 -0.0 0.8908476943010929 0.4543020862360491
72 8.847215790946143 47.73487076046946 8.609320360942755 5.983532079627532 1.9945106932091916 1.9945106932091916 0.0 -0.0 0.9180976465577227 0.39635427509384946
73 37.876107883134864 46.72634714553951 29.6414341587826 5.983532079627532 1.9945106932091916 1.9945106932091916 0.0 0.0 0.6852526383261238 0.7283054453092375
74 43.11207070856417 26.09792167290242 11.588091106229252 6.0436675767813055 2.014555858927105 2.014555858927105 0.0 0.0 0.6622208999947843 0.7493086677799063
75 60.186588628543085 48.64341710659461 32.210416400801684 6.0436675767813055 2.014555858927105 2.014555858927105 0.0 0.0 0.6669694181073614 0.7450850926636016
76 52.27141988080293 12.136850394097243 29.966525070245254 6.104407445729064 2.034802481909722 2.034802481909722 0.0 0.0 0.4849872773235938 0.8745212066235144
77 18.984102142011906 44.716689692373166 21.17578593796212 6.104407445729064 2.034802481909722 2.034802481909722 0.0 -0.0 0.724549744492829 0.6892225096116464
78 3.1511794998371006 18.347091583024582 9.455148655670985 6.165757760508506 2.055252586836169 2.055252586836169 0.0 0.0 0.646327957303847 0.7630597431442944
79 3.43445864254411 25.006745222479875 29.27389447468298 6.165757760508506 2.055252586836169 2.055252586836169 0.0 0.0 0.4210348644808628 0.9070444547493698
80 54.4906889951597 5.341454402066974 21.56830525317844 6.227724656202191 2.0759082187340288 2.0759082187340288 0.0 0.0 0.5786941501693628 0.8155446527074768
81 59.429560818003075 36.916032755874795 26.947878582040197 6.227724656202191 2.0759082187340288 2.0759082187340288 0.0 0.0 0.683142879342022 0.730284743373632
82 6.730806889161801 10.872533075076616 60.84060302073819 6.290314329551183 2.096771443183701 2.096771443183701 0.0 0.0 0.3480344086077516 0.937481760049257
83 23.920623139478813 49.6900879516716 1.0289877947591433 6.290314329551183 2.096771443183701 2.096771443183701 0.0 -0.0 0.8280938516825816 0.560589486884571
84 30.588377263896575 2.1753966728410927 9.853933696183724 6.3535330395750265 2.1178443465250343 2.1178443465250343 0.0 -0.0 0.8521868438699086 0.5232375972109076
85 24.176507701816153 39.39793741015972 29.540783993931612 6.3535330395750265 2.1178443465250343 2.1178443465250343 0.0 0.0 0.2683204071818837 0.9633297250109892
86 7.080052314602456 59.211635902595894 58.462244371800665 6.417387108197542 2.1391290360658646 2.1391290360658646 0.0 0.0 0.5717525694490604 0.8204261083902665
87 12.542787047976024 52.07510396103973 47.7098958880939 6.417387108197542 2.1391290360658646 2.1391290360658646 0.0 -0.0 0.7407334016199733 0.6717990977401677
88 26.99500793678774 46.91544206350819 54.22189526315264 6.481882920878794 2.1606276402929034 2.1606276402929034 0.0 0.0 0.6524446383875427 0.7578363898885753
89 30.857457371426342 29.769010272166703 44.29509546224361 6.481882920878794 2.1606276402929034 2.1606276402929034 0.0 0.0 0.3815125934194192 0.9243636411404275
90 19.50013940341519 15.481844616530557 45.6075412474267 6.5470269272536505 2.1823423090845195 2.1823423090845195 0.0 -0.0 0.7664413141092511 0.642314340511314
91 37.706378473791915 58.86252903720711 28.536264253095734 6.5470269272536505 2.1823423090845195 2.1823423090845195 0.0 -0.0 0.7164030651197486 0.6976866404676452
92 45.06067369082438 18.77260657355787 38.96243452122765 6.61282564177701 2.204275213925668 2.204275213925668 0.0 0.0 0.3159382626609752 0.9487797500931208
93 15.849604950186066 39.80143328345646 39.03752214867041 6.61282564177701 2.204275213925668 2.204275213925668 0.0 -0.0 0.807675111463051 0.5896277760783901
94 55.08975971610916 12.848130186973926 46.76925657880027 6.6792856443753115 2.2264285481251336 2.2264285481251336 0.0 0.0 0.5856043209472178 0.8105970511221638
95 45.951840452217 11.447060078529853 55.11387717786518 6.6792856443753115 2.2264285481251336 2.2264285481251336 0.0 -0.0 0.8283891439806925 0.5601530381377355
96 38.568026187777264 6.359440807960482 41.19570671500564 6.746413581104171 2.2488045270347605 2.2488045270347605 0.0 0.0 0.6380161188650698 0.7700230074928626
97 34.63608122789165 15.3034812953186 30.10271820368526 6.746413581104171 2.2488045270347605 2.2488045270347605 0.0 0.0 0.5652655734899162 0.8249089837231233
98 21.138102018693424 21.814667825816247 41.52890665081436 6.814216164813248 2.2714053882710665 2.2714053882710665 0.0 -0.0 0.9884337224668884 0.15165347437579585
99 52.99825264395097 35.02852714865244 8.843470356250608 6.814216164813248 2.2714053882710665 2.2714053882710665 0.0 0.0 0.644584962479319 0.7645326848117973
100 40.67142538181134 35.85075172202367 57.82960345630779 6.882700175817204 2.294233391939086 2.294233391939086 0.0 -0.0 0.7665764345255346 0.6421530736748979
101 17.215349270389282 38.10817093193377 58.44078847490809 6.882700175817204 2.294233391939086 2.294233391939086 0.0 -0.0 0.7486465484609144 0.6629693397718779
102 38.74075768131201 35.73366977011291 9.730557509930447 6.951872462574365 2.3172908208581475 2.3172908208581475 0.0 -0.0 0.764238184631255 0.644934102952793
103 26.969263281818115 34.96630766283769 7.63376040891025 6.951872462574365 2.3172908208581475 2.3172908208581475 0.0 -0.0 0.7262700822056904 0.6874094614514261
104 41.675925036713274 2.996044131584795 48.42862390944201 7.021739942371198 2.340579980790359 2.340579980790359 0.0 0.0 0.6864264585310771 0.7271992278794606
105 20.109699961600903 50.46109255552308 6.772175705607792 7.021739942371198 2.340579980790359 2.340579980790359 0.0 -0.0 0.8498704758576332 0.5269916263713497
106 23.23389407272448 36.213394284653845 54.67142816627692 7.092309602013558 2.364103200671187 2.364103200671187 0.0 -0.0 0.793590538753224 0.6084521811953406
107 34.436866838322075 6.553197359747349 17.690025950296338 7.092309602013558 2.364103200671187 2.364103200671187 0.0 -0.0 0.8299364941277125 0.5578578812878792
108 55.59945293101734 55.484677607137385 2.9427984624373984 7.163588498526474 2.3878628328421194 2.3878628328421194 0.0 -0.0 0.7596155095013813 0.650372414640225
109 1.372395509485424 42.84688194511776 5.829416280115372 7.163588498526474 2.3878628328421194 2.3878628328421194 0.0 -0.0 0.746179639226726 0.6657446552571586
110 40.80145014222858 13.791605093921051 51.680618264685556 7.235583759858869 2.4118612532862502 2.4118612532862502 0.0 -0.0 0.7434755474029917 0.6687631198068729
111 33.30004998793095 45.747612533848795 18.957516263849968 7.235583759858869 2.4118612532862502 2.4118612532862502 0.0 -0.0 0.7635489887521677 0.6457499065238353
112 46.78360516679899 50.16361898556861 17.20562097709512 7.308302585596857 2.4361008618656586 2.4361008618656586 0.0 -0.0 0.925703395166632 0.3782502137170186
113 17.265141948092626 1.899733871419909 10.700429897459925 7.308302585596857 2.4361008618656586 2.4361008618656586 0.0 -0.0 0.7476030998596368 0.6641457709571461
114 60.49892052302713 10.966186279444294 32.40066202786601 7.381752247683787 2.460584082561263 2.460584082561263 0.0 -0.0 0.7095009508808979 0.7047044775642494
115 25.384326799344368 18.027940558492528 52.68368938432172 7.381752247683787 2.460584082561263 2.460584082561263 0.0 0.0 0.692332939305712 0.7215782016887105
116 11.785505524245751 23.692821943689626 48.573896240717175 7.455940091147031 2.48531336371565 2.48531336371565 0.0 0.0 0.4838188577050026 0.8751681626573412
117 44.422538255719914 37.77709958085902 32.32763517854287 7.455940091147031 2.48531336371565 2.48531336371565 0.0 0.0 0.4072390243389004 0.9133216175343166
118 44.21585172616359 22.786604033736385 60.87660702565068 7.5308735348325015 2.510291178277502 2.510291178277502 0.0 -0.0 0.9854258972554679 0.17010526452245991
119 37.34201442529512 33.69833770179836 2.4122112909888083 7.5308735348325015 2.510291178277502 2.510291178277502 0.0 0.0 0.693566054094668 0.720393037589587
120 36.778444616901346 30.99014611524765 33.98170446344581 7.606560072147303 2.5355200240491027 2.5355200240491027 0.0 -0.0 0.8546373086497397 0.5192254526349123
121 58.39975948305252 53.80213311569563 51.24189569306822 7.606560072147303 2.5355200240491027 2.5355200240491027 0.0 -0.0 0.738138054050796 0.6746496966293722
122 52.81266079305668 29.399615751468797 59.91567900326693 7.683007271808129 2.5610024239360736 2.5610024239360736 0.0 0.0 0.30497028615780525 0.9523618663936657
123 40.53653547767914 35.72840383282834 51.97007494341315 7.683007271808129 2.5610024239360736 2.5610024239360736 0.0 -0.0 0.8240326158671573 0.5665423620411186
124 0.7453255552925969 39.45217240739668 60.00435096221455 7.760222778598805 2.586740926199594 2.586740926199594 0.0 -0.0 0.7351480847541838 0.6779065521753388
125 45.64596114573337 49.738667592742146 48.29143663758054 7.760222778598805 2.586740926199594 2.586740926199594 0.0 0.0 0.6354145425399089 0.7721711980699606
126 27.91236323342724 8.742291544168165 42.04653362001463 7.83821431413408 2.612738104711359 2.612738104711359 0.0 -0.0 0.9631928649301144 0.2688112812880415
127 0.4357622451811158 32.27122334713247 39.185117314519445 7.83821431413408 2.612738104711359 2.612738104711359 0.0 0.0 0.6645731125154195 0.7472232451694524
128 9.703960813138796 52.1109383341067 54.407117638325275 7.916989677632534 2.638996559210843 2.638996559210843 0.0 -0.0 0.837305869343264 0.5467347447925007
129 46.11704336061088 58.11324964778724 8.213093242904826 7.916989677632534 2.638996559210843 2.638996559210843 0.0 0.0 0.6718759690179156 0.7406636768846148
130 32.75897993863917 56.30584117638551 13.08346166500465 7.996556746696504 2.665518915565468 2.665518915565468 0.0 -0.0 0.8172568989423515 0.5762735124323614
131 10.697124848008313 20.760645863251 43.314258444315996 7.996556746696504 2.665518915565468 2.665518915565468 0.0 0.0 0.5650588956672867 0.8250505708302167
132 27.057717513629832 2.384170757436939 56.17967209823596 8.076923478098838 2.6923078260329203 2.6923078260329203 0.0 0.0 0.5632303093681869 0.8262999568008076
133 24.334858212558895 0.4680845508926685 34.747797859315654 8.076923478098838 2.6923078260329203 2.6923078260329203 0.0 0.0 0.7047758212396541 0.7094300823872436
134 60.59673334560788 42.47458475004826 46.54828763672551 8.158097908579638 2.719365969526536 2.719365969526536 0.0 -0.0 0.7457546235329385 0.6662207152882933
135 46.008522504983816 45.6514614202953 60.15195681540488 8.158097908579638 2.719365969526536 2.719365969526536 0.0 0.0 0.5807371118896761 0.8140911539097067
136 16.351049848875334 1.9983938896745175 0.2788326627095328 8.240088155649918 2.7466960518833 2.7466960518833 0.0 -0.0 0.7765636880913803 0.6300387593933514
137 8.770664241246443 37.786994633035114 35.47056083709829 8.240088155649918 2.7466960518833 2.7466960518833 0.0 -0.0 0.9207785641385271 0.39008567754147583
138 50.17554324236133 22.5377540318873 25.50146155703701 8.322902418402467 2.774300806134123 2.774300806134123 0.0 0.0 0.5933031767685688 0.8049790931672228
139 55.61339671489715 27.423211571465448 4.616851442635129 8.322902418402467 2.774300806134123 2.774300806134123 0.0 0.0 0.36293328461656904 0.9318151270061183
140 60.89939705482031 10.711172530556329 42.03707495410887 8.406548978332697 2.8021829927775594 2.8021829927775594 0.0 0.0 0.5657838974393875 0.8245535649054563
141 17.788889651242613 3.68366884399243 53.52146410283561 8.406548978332697 2.8021829927775594 2.8021829927775594 0.0 0.0 0.5898626798291705 0.8075035720941112
142 6.607547186207451 25.10112499123896 4.194954049417017 8.491036200166043 2.8303454000553847 2.8303454000553847 0.0 0.0 0.494526605223718 0.8691624915548904
143 31.527055552459625 0.8751245199765122 1.089185214109548 8.491036200166043 2.8303454000553847 2.8303454000553847 0.0 0.0 0.6621201748514545 0.7493976741721844
144 11.272611363989236 38.45979307040653 48.21586585419356 8.576372532695508 2.8587908442318524 2.8587908442318524 0.0 -0.0 0.8358120424685423 0.5490156916378287
145 11.530801170660036 33.41665740452188 16.856546024661498 8.576372532695508 2.8587908442318524 2.8587908442318524 0.0 -0.0 0.7380766977143534 0.6747168208152773
146 24.50927750669449 51.87798190068623 48.969353909319324 8.662566509625151 2.887522169875061 2.887522169875061 0.0 0.0 0.5600689403365469 0.8284460043179022
147 39.16120146815014 17.74014309833483 34.56125973761392 8.662566509625151 2.887522169875061 2.887522169875061 0.0 -0.0 0.8053653384335279 0.5927787712543771
148 4.321585021298137 24.195686147928214 57.33327165513017 8.749626750424632 2.9165422501415486 2.9165422501415486 0.0 -0.0 0.9475491048281723 0.31961022189430877
149 48.264959985949005 2.3445117998990024 26.064520397205122 8.749626750424632 2.9165422501415486 2.9165422501415486 0.0 -0.0 0.8855269061838191 0.46458809543994295
150 27.859832816347833 13.764103774980361 18.457681063033245 8.837561961190525 2.9458539870635105 2.9458539870635105 0.0 -0.0 0.8997163709941051 0.43647502994466686
151 31.18375893788957 43.37744387456847 39.163156623315196 8.837561961190525 2.9458539870635105 2.9458539870635105 0.0 0.0 0.6949034215940625 0.7191030765174521
152 0.8401143718430861 6.385684132300763 60.861579083814334 8.92638093551721 2.9754603118390484 2.9754603118390484 0.0 0.0 0.6496096252583186 0.7602679361723385
153 34.250329109293126 17.56955760599312 3.8957894154749177 8.92638093551721 2.9754603118390484 2.9754603118390484 0.0 0.0 0.6980264017745981 0.7160720232110785
154 51.11832715986176 9.187845143764338 3.032870856313377 9.016092555375993 3.0053641851253174 3.0053641851253174 0.0 -0.0 0.9126309719920443 0.4087844284716046
155 16.205059244719973 39.71474481728878 4.914174633782025 9.016092555375993 3.0053641851253174 3.0053641851253174 0.0 0.0 0.34897032679986184 0.9371337743423815
156 32.56708606999889 45.08243208664522 47.75198518008349 9.106705792003854 3.035568597334594 3.035568597334594 0.0 0.0 0.6995675014656925 0.7145665195718649
157 25.11430954156029 24.363172587699374 46.71030437514839 9.106705792003854 3.035568597334594 3.035568597334594 0.0 0.0 0.63565327495599 0.7719746848425306
158 53.2222481966161 58.83355102444719 47.29681314586683 9.198229706799884 3.066076568933293 3.066076568933293 0.0 -0.0 0.7426985308561326 0.6696259345814963
159 20.526578441380714 22.769409951569006 10.660038259581578 9.198229706799884 3.066076568933293 3.066076568933293 0.0 0.0 0.4891044501540252 0.8722252213961303
160 57.0774654505416 50.64472660409259 9.822294565946365 9.29067345223176 3.0968911507439487 3.0968911507439487 0.0 0.0 0.6466947184788655 0.7627489371290798
161 30.863806066570394 14.57840661688001 35.977123098532566 9.29067345223176 3.0968911507439487 3.0968911507439487 0.0 0.0 0.6377575578887067 0.7702371695496348
162 3.0773046405258127 2.902073599239001 12.098870763164918 9.384046272751114 3.128015424250343 3.128015424250343 0.0 0.0 0.6701572236966805 0.7422191694689361
163 42.35780888435936 2.7121148293083843 36.853072613534856 9.384046272751114 3.128015424250343 3.128015424250343 0.0 -0.0 0.7797338016261434 0.6261111711203069
164 47.224638141258346 48.95355878146982 39.12941334851445 9.478357505717801 3.159452501905933 3.159452501905933 0.0 0.0 0.6966086930688543 0.7174512727293072
165 59.54861195876502 36.3864569840427 21.309578371451817 9.478357505717801 3.159452501905933 3.159452501905933 0.0 -0.0 0.8994069955971553 0.43711217813153935
6_B 29.276008412886956 63.40465758488627 20.034987251970918 3.3838396043041685 1.1279465347680622 1.1279465347680622 0.0 0.0 0.643710445538684 0.7652691437033046
7_T 31.61706508522461 -0.9706195382453586 31.1837367413827 3.4178477577134454 1.1392825859044837 1.1392825859044837 0.0 -0.0 0.7603958793842515 0.6494598575858641
9_T 49.1083924602848 -0.2697529060398409 51.367013016514065 3.48689286242671 1.1622976208089049 1.1622976208089049 0.0 -0.0 0.7176002965020949 0.6964551776389529
11_Ba 31.9366452286417 34.274658033508594 61.46353099945258 3.5573327707774487 1.185777590259149 1.185777590259149 0.0 0.0 0.49983922045674145 0.866118209999765
12_L -0.9536495542544401 10.357730191240032 25.494478919551398 3.5930845594977083 1.1976948531659128 1.1976948531659128 0.0 0.0 0.2746680171135514 0.9615391205639581
20_B 30.619533888961595 62.09711253047534 35.97143773869775 3.8923420363664976 1.2974473454555036 1.2974473454555036 0.0 -0.0 0.7861857262579329 0.6179902942832407
22_T 12.165919844705956 -1.7807212358225115 31.58375090052541 3.970972561343507 1.3236575204478358 1.3236575204478358 0.0 -0.0 0.8910647246123514 0.45387625687131333
24_T 31.183821113091412 -1.1791203883051438 49.422307076763545 4.05119152829217 1.3503971760973867 1.3503971760973867 0.0 0.0 0.5255054740936084 0.8507902189715464
26_T 57.798695423427326 -0.3420035623480828 25.482101760689964 4.133031025868668 1.3776770086229047 1.3776770086229047 0.0 0.0 0.5361151400853296 0.8441448670526212
27_R 60.95927050655 17.757525470463307 23.759492329997318 4.174568678242702 1.3915228927475765 1.3915228927475765 0.0 -0.0 0.7297620279401082 0.6837012378054764
30_B 17.46021150043758 64.10855014443388 31.78828791123039 4.301703221795547 1.4339010739318645 1.4339010739318645 0.0 -0.0 0.8433777540022546 0.5373210995802349
36_BB 36.694002957070204 65.17731690940599 60.19085086521392 4.567705693294399 1.5225685644314886 1.5225685644314886 0.0 -0.0 0.739632735620696 0.6730107104632479
36_FT 36.694002957070204 4.277316909405983 -0.709149134786081 4.567705693294399 1.5225685644314886 1.5225685644314886 0.0 -0.0 0.739632735620696 0.6730107104632479
36_FB 36.694002957070204 65.17731690940599 -0.709149134786081 4.567705693294399 1.5225685644314886 1.5225685644314886 0.0 -0.0 0.739632735620696 0.6730107104632479
37_T 23.46728917871599 -3.164951851843213 20.710011470031017 4.61361189870336 1.537870632901135 1.537870632901135 0.0 0.0 0.5163603530767541 0.8563714064414165
38_B 18.33405047671305 63.57691035284642 21.360994766136397 4.6599794691468155 1.553326489715592 1.553326489715592 0.0 0.0 0.5145463711011363 0.8574625542766586
40_L -0.9604921933540567 30.143349828556225 15.120027519157967 4.754117298920799 1.5847057663069142 1.5847057663069142 0.0 -0.0 0.8608342640850161 0.5088854191045453
43_T 4.948372673607367 -1.6836831087599862 33.98666263615747 4.898901725619738 1.6329672418732442 1.6329672418732442 0.0 -0.0 0.8971229945165649 0.4417808650333688
48_RB 61.26295850753649 57.4268588611864 14.718682783072094 5.150073788130675 1.7166912627102262 1.7166912627102262 0.0 0.0 0.43861391052531945 0.8986756019241242
48_LT 0.3629585075364926 -3.4731411388135953 14.718682783072094 5.150073788130675 1.7166912627102262 1.7166912627102262 0.0 0.0 0.43861391052531945 0.8986756019241242