ITEM: TIMESTEP
459
ITEM: NUMBER OF ATOMS
248
ITEM: BOX BOUNDS ff ff ff
0 60.9
60.9 0
60.9 0
ITEM: ATOMS id x y z AsphericalShapeX AsphericalShapeY AsphericalShapeZ OrientationX OrientationY OrientationZ OrientationW
1 47.15243324678181 42.94849777818438 20.2365566963896 3.2470429555401235 1.0823476518467128 1.0823476518467128 0.0 -0.0 0.7863642711635499 0.6177630881150306
2 11.678871539882412 15.815123577301879 23.487313113243616 3.279676279772771 1.0932254265909054 1.0932254265909054 0.0 -0.0 0.8896314041555925 0.4566792799549252
3 8.862109974509668 19.681259230169648 58.52751216902658 3.3126375743664203 1.104212524788817 1.104212524788817 0.0 0.0 0.631512325711268 0.7753658378305981
4 20.799937972514062 47.88663318280472 45.662027017340804 3.3459301354781488 1.115310045159376 1.115310045159376 0.0 0.0 0.5765741652112841 0.8170448164029381
5 44.28770774967299 10.68951774149194 14.0903977887694 3.3795572923916555 1.1265190974638775 1.1265190974638775 0.0 -0.0 0.8873914294477543 0.4610167577677315
6 29.163402682801095 2.998758953386468 20.06513838361333 3.4135224078506967 1.137840802616905 1.137840802616905 0.0 0.0 0.643710445538684 0.7652691437033046
7 31.325693147888146 59.871604035269904 31.337129083166825 3.4478288783951423 1.1492762927983824 1.1492762927983824 0.0 -0.0 0.7603958793842515 0.6494598575858641
8 43.61519284857845 35.05360804182903 16.528920117200247 3.4824801347006145 1.1608267115668809 1.1608267115668809 0.0 -0.0 0.7854601334426244 0.6189122545016335
9 49.22192814034501 60.767346857549406 51.42808284420319 3.5174796419216814 1.1724932139738953 1.1724932139738953 0.0 -0.0 0.7176002965020949 0.6964551776389529
10 53.584346906522704 6.656610273577014 11.386770151819968 3.5528309000381517 1.1842769666793882 1.1842769666793882 0.0 0.0 0.38534345666417513 0.9227732226317065
11 32.09245875843072 34.82209179655579 0.4896021242994659 3.588537444205321 1.19617914806844 1.19617914806844 0.0 0.0 0.49983922045674145 0.866118209999765
12 60.28472683147378 10.52216652926714 25.470719424301564 3.624602845107337 1.208200948369123 1.208200948369123 0.0 0.0 0.2746680171135514 0.9615391205639581
13 5.3368573993943835 53.320412751729734 15.977187803741906 3.6610307093144883 1.2203435697714806 1.2203435697714806 0.0 -0.0 0.7886508549344257 0.614841303924191
14 17.943886861113867 37.722121434466025 24.49782705282466 3.697824679643345 1.2326082265477616 1.2326082265477616 0.0 -0.0 0.7750680292508737 0.6318777967559605
15 25.75898638447241 41.04760039257455 24.43638143017764 3.7349884355216734 1.2449961451739056 1.2449961451739056 0.0 0.0 0.6340811782098568 0.7732664866913604
16 13.899140051466393 29.920948360174275 53.724807570960394 3.7725256933561724 1.2575085644520414 1.2575085644520414 0.0 -0.0 0.7629176367612683 0.6464956918020424
17 25.22291959141842 19.44331403145635 37.61443201980123 3.810440206903691 1.2701467356345508 1.2701467356345508 0.0 0.0 0.6579222258448839 0.7530858813836
18 40.61561757450588 38.55084250303419 15.50467419391752 3.8487357676473124 1.2829119225490913 1.2829119225490913 0.0 0.0 0.506211649243881 0.8624092799650234
19 24.233633580197086 16.4911935829993 41.62163520220758 3.887416205174995 1.2958054017249816 1.2958054017249816 0.0 0.0 0.6434542777811493 0.7654845474633303
20 30.59536351679534 0.547320962905876 35.97327870982034 3.9264853875626953 1.3088284625209028 1.3088284625209028 0.0 -0.0 0.7861857262579329 0.6179902942832407
21 44.51933699140295 20.190679827298958 43.14502723512452 3.965947221761236 1.321982407253724 1.321982407253724 0.0 0.0 0.6069811502172251 0.7947162281474907
22 12.371541043036943 59.44429343911485 30.91892954080344 4.005805653986871 1.3352685513289568 1.3352685513289568 0.0 -0.0 0.8910647246123514 0.45387625687131333
23 39.880728972080604 50.165700169523475 45.64870766802813 4.046064670116195 1.3486882233720672 1.3486882233720672 0.0 -0.0 0.7582829367961579 0.651925599868416
24 30.665239497606777 59.537079445130544 49.321456072340155 4.086728296084205 1.3622427653613987 1.3622427653613987 0.0 0.0 0.5255054740936084 0.8507902189715464
25 16.733309936858028 55.217147345330645 49.64077540113469 4.127800598287483 1.3759335327624769 1.3759335327624769 0.0 0.0 0.6637035342538496 0.7479957343587923
26 57.83464297778415 60.20434576750966 24.93555129053609 4.169285683990324 1.3897618946634565 1.3897618946634565 0.0 0.0 0.5361151400853296 0.8441448670526212
27 0.05185323379895125 18.276063063045584 23.980304973506538 4.21118770173606 1.4037292339120286 1.4037292339120286 0.0 -0.0 0.7297620279401082 0.6837012378054764
28 25.695163915948616 31.20052796598624 37.88960006190319 4.253510841761308 1.4178369472537613 1.4178369472537613 0.0 -0.0 0.9828164757017253 0.18458541407500267
29 45.44481964211893 29.8740036693528 30.138099623335297 4.296259336415342 1.4320864454717963 1.4320864454717963 0.0 -0.0 0.8740853421614372 0.4857723897243679
30 17.44496587395075 2.8437764996343176 31.791783526908908 4.339437460583229 1.4464791535277584 1.4464791535277584 0.0 -0.0 0.8433777540022546 0.5373210995802349
31 51.794258023676086 53.76881469860775 39.85328364367013 4.383049532113379 1.461016510704481 1.461016510704481 0.0 0.0 0.6952778540174372 0.7187410560924617
32 56.640809046806076 34.25726581017437 33.11316341766809 4.427099912249305 1.4756999707497827 1.4756999707497827 0.0 0.0 0.6353234605105568 0.7722461398575527
33 26.471318621074808 27.298005475141373 26.227340303008926 4.471593006065729 1.490531002021899 1.490531002021899 0.0 0.0 0.6411270229476993 0.7674347792784871
34 21.814273449898245 10.334110430932846 24.74976198999267 4.516533262909058 1.5055110876363753 1.5055110876363753 0.0 -0.0 0.7453722743584635 0.6666484625480594
35 25.44838378672888 49.974584633281744 42.08560347477435 4.561925176842528 1.5206417256141878 1.5206417256141878 0.0 -0.0 0.7109313362059317 0.7032614273514853
36 37.050623145675324 3.641374715547461 60.43069461054185 4.607773287095227 1.535924429031765 1.535924429031765 0.0 -0.0 0.739632735620696 0.6730107104632479
37 23.136682342649127 58.094368481070354 20.246499545541365 4.654082178516549 1.5513607261721978 1.5513607261721978 0.0 0.0 0.5163603530767541 0.8563714064414165
38 18.302721519995718 3.585870468316102 21.369920824896464 4.7008564820340695 1.5669521606780095 1.5669521606780095 0.0 0.0 0.5145463711011363 0.8574625542766586
39 15.118211623040555 20.46084073526363 28.3941729595909 4.748100875117204 1.5827002917057347 1.5827002917057347 0.0 0.0 0.5880831456971182 0.8088004783300898
40 59.86858681182648 30.01251549051713 15.812086970167131 4.795820082244666 1.5986066940815362 1.5986066940815362 0.0 -0.0 0.8608342640850161 0.5088854191045453
41 18.78226385143011 14.212432544016254 32.59163364421337 4.844018875376791 1.6146729584589212 1.6146729584589212 0.0 0.0 0.5813114541301716 0.8136811373609846
42 16.090886141462608 10.903520643503683 41.48618575833353 4.89270207443316 1.6309006914777322 1.6309006914777322 0.0 0.0 0.6858728758951139 0.7277213739552836
43 4.64903779859002 58.35153377677287 34.21119330653878 4.941874547774298 1.6472915159247636 1.6472915159247636 0.0 -0.0 0.8971229945165649 0.4417808650333688
44 43.20153626737022 16.509093160055674 31.637860621016355 4.991541212688444 1.6638470708961322 1.6638470708961322 0.0 -0.0 0.7662793896249596 0.6425075073771507
45 41.8210040617389 41.449185949040306 37.42175950320043 5.0417070358834755 1.6805690119611434 1.6805690119611434 0.0 -0.0 0.8021859139948743 0.5970743332184094
46 16.43279817729281 36.31327573763733 13.726581668932313 5.09237703398348 1.6974590113278416 1.6974590113278416 0.0 0.0 0.6689296931602822 0.7433256793683982
47 50.3722590441056 26.9703073215841 13.471842090010941 5.143556274030613 1.7145187580102044 1.7145187580102044 0.0 -0.0 0.8121614142020023 0.5834328044268712
48 0.05661444729451193 56.70734518382842 15.014357620372689 5.195249873991471 1.731749957997158 1.731749957997158 0.0 0.0 0.43861391052531945 0.8986756019241242
49 22.813070364355934 10.934086822765025 5.926638922647706 5.247463003269053 1.749154334423029 1.749154334423029 0.0 -0.0 0.7611420715427216 0.6485851886434459
50 32.11982002245765 12.434218911857599 57.11449904356378 5.300200883219909 1.7667336277399623 1.7667336277399623 0.0 0.0 0.5689873473401131 0.8223462765568174
51 51.408496164128536 25.43289194448721 39.81852599809862 5.353468787675966 1.7844895958919667 1.7844895958919667 0.0 -0.0 0.9816329176571261 0.1907794930592849
52 32.29165372940413 36.514656599385575 27.31970389240583 5.407272043471984 1.8024240144906356 1.8024240144906356 0.0 -0.0 0.8312938914163103 0.5558331279205367
53 11.407343780689311 57.06693274471616 5.95688290444517 5.461616030978345 1.8205386769928111 1.8205386769928111 0.0 0.0 0.4937832216878833 0.8695850332081013
54 32.11394597498367 55.745997224987384 42.50019466166386 5.516506184639252 1.8388353948797478 1.8388353948797478 0.0 -0.0 0.7425013715714329 0.6698445440656666
55 19.724133436837807 37.96766433821516 10.109666174352144 5.516506184639252 1.8388353948797478 1.8388353948797478 0.0 -0.0 0.899222239431846 0.4374921303419936
56 36.604420834445605 8.601001615531596 24.443090422599877 5.571947993515744 1.8573159978385725 1.8573159978385725 0.0 0.0 0.591041689671776 0.8066410112744902
57 52.873195607564796 60.178779324492965 55.119951008069364 5.571947993515744 1.8573159978385725 1.8573159978385725 0.0 0.0 0.6906372933410847 0.7232013060320761
58 31.108416559219666 42.196359077432426 31.920662139101196 5.627947001834857 1.8759823339449488 1.8759823339449488 0.0 -0.0 0.9778925487455288 0.20910801779935065
59 28.645819103962438 49.359273444895145 27.061853397850644 5.627947001834857 1.8759823339449488 1.8759823339449488 0.0 -0.0 0.8334397726994561 0.5526103014626843
60 42.9612154785241 27.286266839991914 55.49699686522364 5.6845088095442255 1.894836269848055 1.894836269848055 0.0 -0.0 0.8251393648538317 0.5649292243888745
61 12.23250269190125 52.27031364389499 38.895912280909776 5.6845088095442255 1.894836269848055 1.894836269848055 0.0 -0.0 0.8342848482439009 0.5513336485202505
62 18.703831000622763 1.5600487952574338 44.10644039132431 5.741639072871534 1.9138796909571596 1.9138796909571596 0.0 0.0 0.6993489688984815 0.7147803996337831
63 37.23034463406887 0.963940601722613 50.59820292835545 5.741639072871534 1.9138796909571596 1.9138796909571596 0.0 0.0 0.6638694557235675 0.747848477806363
64 40.28888691664341 30.764440656966823 42.55482725965015 5.799343504890917 1.9331145016302973 1.9331145016302973 0.0 0.0 0.5469534661185369 0.8371630103515794
65 20.637431628464576 10.968306116308527 2.3616335102149897 5.799343504890917 1.9331145016302973 1.9331145016302973 0.0 0.0 0.534266604389083 0.8453160328744268
66 28.882558119642596 8.492534792820871 31.92926722075744 5.857627876093452 1.9525426253645048 1.9525426253645048 0.0 0.0 0.49259387534365895 0.8702593142126752
67 60.453398701384074 30.1729681738875 8.632189441766482 5.857627876093452 1.9525426253645048 1.9525426253645048 0.0 -0.0 0.7991221049958454 0.6011687461162707
68 41.220819770543194 39.49064196952887 22.31500386138412 5.916498014965124 1.9721660049883851 1.9721660049883851 0.0 -0.0 0.8113628171424923 0.5845428803420658
69 36.85275982190878 17.010897731801208 58.024161775089496 5.916498014965124 1.9721660049883851 1.9721660049883851 0.0 0.0 0.69974083585519 0.7143967823532522
70 8.283448103593415 54.38833513853839 21.676179230970508 5.975959808568688 1.9919866028562088 1.9919866028562088 0.0 -0.0 0.9226100212719841 0.3857340387475665
71 26.72277538078401 56.851075230647155 25.719849135842516 5.975959808568688 1.9919866028562088 1.9919866028562088 0.0 -0.0 0.8908476943010929 0.4543020862360491
72 8.330480902920241 47.07094048679751 8.526953863572638 6.036019203133036 2.01200640104436 2.01200640104436 0.0 -0.0 0.9180976465577227 0.39635427509384946
73 37.890352251521705 45.70783039971645 29.734184421259684 6.036019203133036 2.01200640104436 2.01200640104436 0.0 0.0 0.6852526383261238 0.7283054453092375
74 42.93057342987665 24.945429552003592 11.780262807690876 6.096682204647808 2.0322274015492727 2.0322274015492727 0.0 0.0 0.6622208999947843 0.7493086677799063
75 59.62304073868403 48.42844641113017 33.01267740689858 6.096682204647808 2.0322274015492727 2.0322274015492727 0.0 0.0 0.6669694181073614 0.7450850926636016
76 52.4605771523644 11.198146981018082 30.369506436617613 6.157954879463529 2.0526516264878776 2.0526516264878776 0.0 0.0 0.4849872773235938 0.8745212066235144
77 19.02752067815878 43.45696955596182 21.163415388619544 6.157954879463529 2.0526516264878776 2.0526516264878776 0.0 -0.0 0.724549744492829 0.6892225096116464
78 2.900045586205392 18.905680225348693 9.58196474096287 6.219843354898932 2.073281118299644 2.073281118299644 0.0 0.0 0.646327957303847 0.7630597431442944
79 3.3957255716920725 25.710404396712914 28.407051570347296 6.219843354898932 2.073281118299644 2.073281118299644 0.0 0.0 0.4210348644808628 0.9070444547493698
80 54.63882710973053 4.5634740722068425 21.859531473349254 6.282353819853088 2.0941179399509946 2.0941179399509946 0.0 0.0 0.5786941501693628 0.8155446527074768
81 59.19600226525487 36.20653649258716 26.53563735736474 6.282353819853088 2.0941179399509946 2.0941179399509946 0.0 0.0 0.683142879342022 0.730284743373632
82 7.445294034235324 11.416746829584254 60.8380588160665 6.34549252542444 2.1151641751414525 2.1151641751414525 0.0 0.0 0.3480344086077516 0.937481760049257
83 23.59370233482371 50.00034268612778 1.9720951987224287 6.34549252542444 2.1151641751414525 2.1151641751414525 0.0 -0.0 0.8280938516825816 0.560589486884571
84 32.00392061967793 2.204684802768887 9.763996676758019 6.40926578553621 2.136421928512096 2.136421928512096 0.0 -0.0 0.8521868438699086 0.5232375972109076
85 24.025637213813727 39.85332299032796 29.009796778978526 6.40926578553621 2.136421928512096 2.136421928512096 0.0 0.0 0.2683204071818837 0.9633297250109892
86 6.822608574096597 59.90831802518226 58.86011152115955 6.473679977567696 2.157893325855915 2.157893325855915 0.0 0.0 0.5717525694490604 0.8204261083902665
87 12.687925112702654 52.573458173793426 47.75947238346123 6.473679977567696 2.157893325855915 2.157893325855915 0.0 -0.0 0.7407334016199733 0.6717990977401677
88 27.376665324031944 48.00142768932691 54.17627910807527 6.538741542991767 2.1795805143305604 2.1795805143305604 0.0 0.0 0.6524446383875427 0.7578363898885753
89 31.56193781281521 29.573655973637266 45.16923139927715 6.538741542991767 2.1795805143305604 2.1795805143305604 0.0 0.0 0.3815125934194192 0.9243636411404275
90 19.712347603874065 16.435083736394727 45.44868916851576 6.6044569880190345 2.201485662672981 2.201485662672981 0.0 -0.0 0.7664413141092511 0.642314340511314
91 37.692345145062234 59.865955789638804 28.444888146570005 6.6044569880190345 2.201485662672981 2.201485662672981 0.0 -0.0 0.7164030651197486 0.6976866404676452
92 45.41731918102945 17.876331499349565 38.69393747183388 6.670832884248738 2.223610961416244 2.223610961416244 0.0 0.0 0.3159382626609752 0.9487797500931208
93 16.84212125328992 40.08387147362534 39.53763472198313 6.670832884248738 2.223610961416244 2.223610961416244 0.0 -0.0 0.807675111463051 0.5896277760783901
94 54.603864111112316 12.91891251768218 47.020095676032994 6.737875869325971 2.2459586231086868 2.2459586231086868 0.0 0.0 0.5856043209472178 0.8105970511221638
95 46.19837855973461 10.20271746303827 55.13584380471259 6.737875869325971 2.2459586231086868 2.2459586231086868 0.0 -0.0 0.8283891439806925 0.5601530381377355
96 38.94311216546737 5.901758223448212 41.480194678994096 6.805592647605085 2.2685308825350656 2.2685308825350656 0.0 0.0 0.6380161188650698 0.7700230074928626
97 35.338718261993705 14.27126550399362 30.436222576719008 6.805592647605085 2.2685308825350656 2.2685308825350656 0.0 0.0 0.5652655734899162 0.8249089837231233
98 20.819083640667536 22.019761043512577 41.77782714201085 6.873989990820383 2.29132999694011 2.29132999694011 0.0 -0.0 0.9884337224668884 0.15165347437579585
99 52.876442906022625 35.38334818142922 9.041126728316693 6.873989990820383 2.29132999694011 2.29132999694011 0.0 0.0 0.644584962479319 0.7645326848117973
100 41.03184710438348 36.901095294433574 58.01637193153787 6.943074738762968 2.3143582462543417 2.3143582462543417 0.0 -0.0 0.7665764345255346 0.6421530736748979
101 16.800871769549886 37.51276849600184 58.37850420627382 6.943074738762968 2.3143582462543417 2.3143582462543417 0.0 -0.0 0.7486465484609144 0.6629693397718779
102 39.0392373570619 36.94104189998369 10.118395699755139 7.0128537999653675 2.337617933321816 2.337617933321816 0.0 -0.0 0.764238184631255 0.644934102952793
103 26.953588546529332 35.754599151006516 7.30104582299518 7.0128537999653675 2.337617933321816 2.337617933321816 0.0 -0.0 0.7262700822056904 0.6874094614514261
104 41.7197635441234 2.8592660937153402 49.193748692900144 7.083334152391998 2.3611113841306253 2.3611113841306253 0.0 0.0 0.6864264585310771 0.7271992278794606
105 19.897240224495796 49.82571049030513 7.1079502586730765 7.083334152391998 2.3611113841306253 2.3611113841306253 0.0 -0.0 0.8498704758576332 0.5269916263713497
106 22.78066511601298 34.923755596542804 54.725598642379005 7.154522844136484 2.3848409480454955 2.3848409480454955 0.0 -0.0 0.793590538753224 0.6084521811953406
107 35.30222887528724 5.6044346434526116 17.589023037763845 7.154522844136484 2.3848409480454955 2.3848409480454955 0.0 -0.0 0.8299364941277125 0.5578578812878792
108 55.022993176365475 54.4058537625089 3.2106134435523774 7.226426994127584 2.4088089980424887 2.4088089980424887 0.0 -0.0 0.7596155095013813 0.650372414640225
109 1.5675269853288616 44.20646624338488 5.528750956761557 7.226426994127584 2.4088089980424887 2.4088089980424887 0.0 -0.0 0.746179639226726 0.6657446552571586
110 41.43573429123693 14.242526324757117 52.18307262523077 7.299053792840088 2.4330179309466557 2.4330179309466557 0.0 -0.0 0.7434755474029917 0.6687631198068729
111 33.48597216881757 44.93180676676586 18.907734035655338 7.299053792840088 2.4330179309466557 2.4330179309466557 0.0 -0.0 0.7635489887521677 0.6457499065238353
112 46.74310777618902 50.95584061318247 16.872823681011578 7.372410503014373 2.457470167671498 2.457470167671498 0.0 -0.0 0.925703395166632 0.3782502137170186
113 16.304817473307203 1.879864393119946 10.76144443339131 7.372410503014373 2.457470167671498 2.457470167671498 0.0 -0.0 0.7476030998596368 0.6641457709571461
114 0.43916099042765255 10.093543136844858 32.49772357772414 7.4465044603827675 2.4821681534609232 2.4821681534609232 0.0 -0.0 0.7095009508808979 0.7047044775642494
115 25.372275189908496 16.618364763639374 52.62093254638199 7.4465044603827675 2.4821681534609232 2.4821681534609232 0.0 0.0 0.692332939305712 0.7215782016887105
116 11.828288379751926 22.461041118456084 48.60376119820822 7.521343074402708 2.507114358134209 2.507114358134209 0.0 0.0 0.4838188577050026 0.8751681626573412
117 45.18460117589156 38.453711592884595 32.162735985914175 7.521343074402708 2.507114358134209 2.507114358134209 0.0 0.0 0.4072390243389004 0.9133216175343166
118 43.59123636176015 22.30612474290476 0.04642483853873973 7.596933828997699 2.532311276332568 2.532311276332568 0.0 -0.0 0.9854258972554679 0.17010526452245991
119 36.5331200517751 34.823607587621105 2.6824832941390087 7.596933828997699 2.532311276332568 2.532311276332568 0.0 0.0 0.693566054094668 0.720393037589587
120 36.01442029661656 30.311792636944414 34.14702807417244 7.67328428330649 2.5577614277688316 2.5577614277688316 0.0 -0.0 0.8546373086497397 0.5192254526349123
121 59.049126073546944 53.17108964480688 51.7366903272405 7.67328428330649 2.5577614277688316 2.5577614277688316 0.0 -0.0 0.738138054050796 0.6746496966293722
122 53.78414574751183 30.14692109900218 59.807089047529146 7.750402072438024 2.5834673574793725 2.5834673574793725 0.0 0.0 0.30497028615780525 0.9523618663936657
123 40.349671591840206 36.379017737638996 51.69826409203054 7.750402072438024 2.5834673574793725 2.5834673574793725 0.0 -0.0 0.8240326158671573 0.5665423620411186
124 1.7077992966067121 40.51239526083304 60.002395611730925 7.828294908235637 2.609431636078538 2.609431636078538 0.0 -0.0 0.7351480847541838 0.6779065521753388
125 46.94368032128838 49.64254512155905 48.88629907438854 7.828294908235637 2.609431636078538 2.609431636078538 0.0 0.0 0.6354145425399089 0.7721711980699606
126 28.322764589903525 7.877819237771374 42.09393555042817 7.906970580047537 2.635656860015845 2.635656860015845 0.0 -0.0 0.9631928649301144 0.2688112812880415
127 60.65669015070041 31.842141043755134 39.43663748772535 7.906970580047537 2.635656860015845 2.635656860015845 0.0 0.0 0.6645731125154195 0.7472232451694524
128 10.06270371126357 51.14012520329505 53.85269742228431 7.986436955506504 2.6621456518354996 2.6621456518354996 0.0 -0.0 0.837305869343264 0.5467347447925007
129 44.75191462230835 58.105069766136765 8.95478165344226 7.986436955506504 2.6621456518354996 2.6621456518354996 0.0 0.0 0.6718759690179156 0.7406636768846148
130 32.56347063946227 55.1820041423006 12.97760510540394 8.066701981316646 2.6889006604388492 2.6889006604388492 0.0 -0.0 0.8172568989423515 0.5762735124323614
131 10.022558122665258 21.99341986251025 43.54288498864766 8.066701981316646 2.6889006604388492 2.6889006604388492 0.0 0.0 0.5650588956672867 0.8250505708302167
132 26.261965049500496 2.857712329433257 57.16147977942146 8.14777368404707 2.715924561348999 2.715924561348999 0.0 0.0 0.5632303093681869 0.8262999568008076
133 23.546153887200855 59.976409914540575 35.236613601603835 8.14777368404707 2.715924561348999 2.715924561348999 0.0 0.0 0.7047758212396541 0.7094300823872436
134 0.27002232550263483 41.53692619410359 46.46307292349987 8.229660170935599 2.7432200569785232 2.7432200569785232 0.0 -0.0 0.7457546235329385 0.6662207152882933
135 46.044267754722526 44.565024923047524 60.29831857002021 8.229660170935599 2.7432200569785232 2.7432200569785232 0.0 0.0 0.5807371118896761 0.8140911539097067
136 15.84039086834504 0.9297615399125878 0.03069775263236771 8.312369630699475 2.7707898768998196 2.7707898768998196 0.0 -0.0 0.7765636880913803 0.6300387593933514
137 7.335392556552726 37.378562513826786 34.74735113929249 8.312369630699475 2.7707898768998196 2.7707898768998196 0.0 -0.0 0.9207785641385271 0.39008567754147583
138 49.901977557546616 23.895338860200322 24.918656187995687 8.395910334353363 2.7986367781177552 2.7986367781177552 0.0 0.0 0.5933031767685688 0.8049790931672228
139 56.02355018600623 26.869699971562472 4.826590929326544 8.395910334353363 2.7986367781177552 2.7986367781177552 0.0 0.0 0.36293328461656904 0.9318151270061183
140 59.748274154644136 9.7092205670229 41.88634679195206 8.48029063603737 2.826763545345784 2.826763545345784 0.0 0.0 0.5657838974393875 0.8245535649054563
141 18.24545855632296 2.164623586562573 53.92988836064404 8.48029063603737 2.826763545345784 2.826763545345784 0.0 0.0 0.5898626798291705 0.8075035720941112
142 6.3139039191255995 23.733323444279577 3.9447234953042734 8.56551897385171 2.8551729912839408 2.8551729912839408 0.0 0.0 0.494526605223718 0.8691624915548904
143 32.7526104630147 0.8873552385160722 1.1300869706304177 8.56551897385171 2.8551729912839408 2.8551729912839408 0.0 0.0 0.6621201748514545 0.7493976741721844
144 11.222059906720952 38.163203571763965 48.22670383874899 8.651603870701607 2.883867956900553 2.883867956900553 0.0 -0.0 0.8358120424685423 0.5490156916378287
145 11.221303809641997 34.440816840893994 15.962810614742637 8.651603870701607 2.883867956900553 2.883867956900553 0.0 -0.0 0.7380766977143534 0.6747168208152773
146 24.36950180152323 52.18404648852982 48.66154035931228 8.738553935148175 2.91285131171607 2.91285131171607 0.0 0.0 0.5600689403365469 0.8284460043179022
147 39.229805160012845 18.001175232945418 34.738945720926154 8.738553935148175 2.91285131171607 2.91285131171607 0.0 -0.0 0.8053653384335279 0.5927787712543771
148 3.621252155288879 23.41149528977229 57.26797955928571 8.826377862270462 2.942125954090159 2.942125954090159 0.0 -0.0 0.9475491048281723 0.31961022189430877
149 48.104495536169125 0.960698936008368 26.063069664688264 8.826377862270462 2.942125954090159 2.942125954090159 0.0 -0.0 0.8855269061838191 0.46458809543994295
150 26.94564530811813 14.766397597058036 18.56438276357913 8.915084434534302 2.971694811511436 2.971694811511436 0.0 -0.0 0.8997163709941051 0.43647502994466686
151 29.77574121724829 43.63268113736534 39.39365972588053 8.915084434534302 2.971694811511436 2.971694811511436 0.0 0.0 0.6949034215940625 0.7191030765174521
152 60.62645949288284 5.53743051838537 60.86554467782854 9.00468252267087 3.0015608408902685 3.0015608408902685 0.0 0.0 0.6496096252583186 0.7602679361723385
153 33.82459531568316 15.84743325746778 3.3425999112111637 9.00468252267087 3.0015608408902685 3.0015608408902685 0.0 0.0 0.6980264017745981 0.7160720232110785
154 50.869121483853654 8.050346438306452 2.946883140271725 9.095181086563501 3.0317270288544864 3.0317270288544864 0.0 -0.0 0.9126309719920443 0.4087844284716046
155 15.848675129657089 40.24551668650192 4.666963532531906 9.095181086563501 3.0317270288544864 3.0317270288544864 0.0 0.0 0.34897032679986184 0.9371337743423815
156 31.470758800060658 44.42883673591826 47.96213566096355 9.186589176144242 3.0621963920480546 3.0621963920480546 0.0 0.0 0.6995675014656925 0.7145665195718649
157 25.770452759412507 24.566702180232276 46.58930676836514 9.186589176144242 3.0621963920480546 3.0621963920480546 0.0 0.0 0.63565327495599 0.7719746848425306
158 52.31556972346359 59.71464583137691 46.605955855081625 9.278915932298132 3.0929719774327085 3.0929719774327085 0.0 -0.0 0.7426985308561326 0.6696259345814963
159 20.647416936722017 24.215302365375724 10.690958345361077 9.278915932298132 3.0929719774327085 3.0929719774327085 0.0 0.0 0.4891044501540252 0.8722252213961303
160 57.757593769228485 51.2869064239818 9.136964715365252 9.372170587777655 3.1240568625925804 3.1240568625925804 0.0 0.0 0.6466947184788655 0.7627489371290798
161 30.692394225971857 14.513089846551026 36.006372728444724 9.372170587777655 3.1240568625925804 3.1240568625925804 0.0 0.0 0.6377575578887067 0.7702371695496348
162 3.561596326025387 4.039534829179116 11.631445786153748 9.466362468126121 3.155454156042012 3.155454156042012 0.0 0.0 0.6701572236966805 0.7422191694689361
163 42.318331577666626 1.7297893993060365 37.2058103374066 9.466362468126121 3.155454156042012 3.155454156042012 0.0 -0.0 0.7797338016261434 0.6261111711203069
164 47.41642183678858 48.25385954460744 39.26025946940737 9.561500992610062 3.187166997536687 3.187166997536687 0.0 0.0 0.6966086930688543 0.7174512727293072
165 58.85339138731216 35.087496023039655 21.283125564655872 9.561500992610062 3.187166997536687 3.187166997536687 0.0 -0.0 0.8994069955971553 0.43711217813153935
6_B 29.163402682801095 63.89875895338647 20.06513838361333 3.4135224078506967 1.137840802616905 1.137840802616905 0.0 0.0 0.643710445538684 0.7652691437033046
7_T 31.325693147888146 -1.0283959647300946 31.337129083166825 3.4478288783951423 1.1492762927983824 1.1492762927983824 0.0 -0.0 0.7603958793842515 0.6494598575858641
9_T 49.22192814034501 -0.132653142450593 51.42808284420319 3.5174796419216814 1.1724932139738953 1.1724932139738953 0.0 -0.0 0.7176002965020949 0.6964551776389529
11_Ba 32.09245875843072 34.82209179655579 61.389602124299465 3.588537444205321 1.19617914806844 1.19617914806844 0.0 0.0 0.49983922045674145 0.866118209999765
12_L -0.6152731685262154 10.52216652926714 25.470719424301564 3.624602845107337 1.208200948369123 1.208200948369123 0.0 0.0 0.2746680171135514 0.9615391205639581
20_B 30.59536351679534 61.44732096290588 35.97327870982034 3.9264853875626953 1.3088284625209028 1.3088284625209028 0.0 -0.0 0.7861857262579329 0.6179902942832407
22_T 12.371541043036943 -1.4557065608851474 30.91892954080344 4.005805653986871 1.3352685513289568 1.3352685513289568 0.0 -0.0 0.8910647246123514 0.45387625687131333
24_T 30.665239497606777 -1.3629205548694543 49.321456072340155 4.086728296084205 1.3622427653613987 1.3622427653613987 0.0 0.0 0.5255054740936084 0.8507902189715464
26_T 57.83464297778415 -0.695654232490341 24.93555129053609 4.169285683990324 1.3897618946634565 1.3897618946634565 0.0 0.0 0.5361151400853296 0.8441448670526212
27_R 60.95185323379895 18.276063063045584 23.980304973506538 4.21118770173606 1.4037292339120286 1.4037292339120286 0.0 -0.0 0.7297620279401082 0.6837012378054764
30_B 17.44496587395075 63.743776499634315 31.791783526908908 4.339437460583229 1.4464791535277584 1.4464791535277584 0.0 -0.0 0.8433777540022546 0.5373210995802349
36_BB 37.050623145675324 64.54137471554746 60.43069461054185 4.607773287095227 1.535924429031765 1.535924429031765 0.0 -0.0 0.739632735620696 0.6730107104632479
36_FT 37.050623145675324 3.641374715547461 -0.4693053894581496 4.607773287095227 1.535924429031765 1.535924429031765 0.0 -0.0 0.739632735620696 0.6730107104632479
36_FB 37.050623145675324 64.54137471554746 -0.4693053894581496 4.607773287095227 1.535924429031765 1.535924429031765 0.0 -0.0 0.739632735620696 0.6730107104632479
37_T 23.136682342649127 -2.805631518929644 20.246499545541365 4.654082178516549 1.5513607261721978 1.5513607261721978 0.0 0.0 0.5163603530767541 0.8563714064414165
38_B 18.302721519995718 64.4858704683161 21.369920824896464 4.7008564820340695 1.5669521606780095 1.5669521606780095 0.0 0.0 0.5145463711011363 0.8574625542766586
40_L -1.0314131881735165 30.01251549051713 15.812086970167131 4.795820082244666 1.5986066940815362 1.5986066940815362 0.0 -0.0 0.8608342640850161 0.5088854191045453
43_T 4.64903779859002 -2.5484662232271305 34.21119330653878 4.941874547774298 1.6472915159247636 1.6472915159247636 0.0 -0.0 0.8971229945165649 0.4417808650333688
48_RB 60.95661444729451 56.70734518382842 15.014357620372689 5.195249873991471 1.731749957997158 1.731749957997158 0.0 0.0 0.43861391052531945 0.8986756019241242
48_LT 0.05661444729451193 -4.192654816171576 15.014357620372689 5.195249873991471 1.731749957997158 1.731749957997158 0.0 0.0 0.43861391052531945 0.8986756019241242