ITEM: TIMESTEP
721
ITEM: NUMBER OF ATOMS
267
ITEM: BOX BOUNDS ff ff ff
0 60.9
60.9 0
60.9 0
ITEM: ATOMS id x y z AsphericalShapeX AsphericalShapeY AsphericalShapeZ OrientationX OrientationY OrientationZ OrientationW
1 45.619542638803516 50.439402518882154 20.806351803666598 5.096445682391265 1.6988152274637602 1.6988152274637602 0.0 -0.0 0.7863642711635499 0.6177630881150306
2 4.580811763672008 17.29223944895314 22.01933159143457 5.14766581303466 1.7158886043448491 1.7158886043448491 0.0 -0.0 0.8896314041555925 0.4566792799549252
3 18.47404095985094 12.955945938753489 55.94286261328817 5.199400714548999 1.733133571516382 1.733133571516382 0.0 0.0 0.631512325711268 0.7753658378305981
4 18.01189775383972 45.13964643940819 43.66573104963526 5.251655560467808 1.7505518534893072 1.7505518534893072 0.0 0.0 0.5765741652112841 0.8170448164029381
5 37.75892883173792 36.38067346357954 21.410912692134666 5.3044355763190785 1.7681451921063713 1.7681451921063713 0.0 -0.0 0.8873914294477543 0.4610167577677315
6 21.19224127522265 9.844013154117754 27.308733770972108 5.357746040148293 1.7859153467161037 1.7859153467161037 0.0 0.0 0.643710445538684 0.7652691437033046
7 18.85563352682349 56.05509107905452 39.19699247228806 5.411592283046288 1.8038640943487452 1.8038640943487452 0.0 -0.0 0.7603958793842515 0.6494598575858641
8 40.203791277696915 33.97022350503985 14.805295230856473 5.465979689682244 1.8219932298941293 1.8219932298941293 0.0 -0.0 0.7854601334426244 0.6189122545016335
9 50.71318451910984 6.699772045983986 51.748000391733605 5.520913698842297 1.8403045662807673 1.8403045662807673 0.0 -0.0 0.7176002965020949 0.6964551776389529
10 50.306767750286376 10.509787425905092 13.83055702202506 5.57639980397295 1.8587999346576543 1.8587999346576543 0.0 0.0 0.38534345666417513 0.9227732226317065
11 17.873949714133442 37.187769499233205 60.12749934619116 5.632443553730961 1.877481184577006 1.877481184577006 0.0 0.0 0.49983922045674145 0.866118209999765
12 11.06568860124337 16.96227869129421 24.439253956582377 5.689050552538007 1.896350184179385 1.896350184179385 0.0 0.0 0.2746680171135514 0.9615391205639581
13 8.585329475821139 48.7205590190197 14.791038162906164 5.74622646114137 1.9154088203804542 1.9154088203804542 0.0 -0.0 0.7886508549344257 0.614841303924191
14 6.836848723190233 36.486859404078146 20.977242741465496 5.803976997179244 1.9346589990597416 1.9346589990597416 0.0 -0.0 0.7750680292508737 0.6318777967559605
15 28.167821418956024 46.94244362677422 20.034944632735023 5.862307935753558 1.9541026452512391 1.9541026452512391 0.0 0.0 0.6340811782098568 0.7732664866913604
16 19.424350774247642 32.11695814413326 49.73889210859737 5.921225110006892 1.9737417033355953 1.9737417033355953 0.0 -0.0 0.7629176367612683 0.6464956918020424
17 19.506344976038324 10.633851889337759 32.75302869939371 5.980734411705381 1.993578137235095 1.993578137235095 0.0 0.0 0.6579222258448839 0.7530858813836
18 36.38721860308912 30.482879477069158 18.4673071249859 6.040841791828957 2.013613930609657 2.013613930609657 0.0 0.0 0.506211649243881 0.8624092799650234
19 14.06692099908394 6.273847535328114 35.70156132759968 6.101553261165889 2.0338510870552997 2.0338510870552997 0.0 0.0 0.6434542777811493 0.7654845474633303
20 29.089742346487526 47.95641804362362 35.78965008780831 6.162874890913533 2.0542916303045526 2.0542916303045526 0.0 -0.0 0.7861857262579329 0.6179902942832407
21 46.57026139003591 16.358780617780937 47.11897459942595 6.224812813286005 2.074937604428672 2.074937604428672 0.0 0.0 0.6069811502172251 0.7947162281474907
22 14.20509113015422 9.743399357017358 29.70536577205634 6.287373222127212 2.095791074042392 2.095791074042392 0.0 -0.0 0.8910647246123514 0.45387625687131333
23 44.59925024568584 8.052713500023334 49.03239687446223 6.350562373530092 2.1168541245100823 2.1168541245100823 0.0 -0.0 0.7582829367961579 0.651925599868416
24 21.73678223034134 14.133422304981101 43.95326569445597 6.414386586462488 2.1381288621541894 2.1381288621541894 0.0 0.0 0.5255054740936084 0.8507902189715464
25 12.041215158051683 7.1364741481552105 54.00515099533886 6.478852243399078 2.159617414466334 2.159617414466334 0.0 0.0 0.6637035342538496 0.7479957343587923
26 2.145318052417123 51.7105994788792 31.457869515004678 6.543965790958811 2.181321930319586 2.181321930319586 0.0 0.0 0.5361151400853296 0.8441448670526212
27 4.363527834488691 32.4095299732549 30.931980860614225 6.609733740551031 2.2032445801836467 2.2032445801836467 0.0 -0.0 0.7297620279401082 0.6837012378054764
28 13.559056056196505 34.25953176129173 29.46280941092241 6.6761626690254445 2.225387556341768 2.225387556341768 0.0 -0.0 0.9828164757017253 0.18458541407500267
29 45.916459961747215 26.301160486950664 27.932091890631266 6.7432592193302545 2.2477530731101005 2.2477530731101005 0.0 -0.0 0.8740853421614372 0.4857723897243679
30 22.76965764671736 58.9632502695053 22.824377757896347 6.811030101176371 2.2703433670588056 2.2703433670588056 0.0 -0.0 0.8433777540022546 0.5373210995802349
31 59.29705119661977 42.726038981349085 31.10682663489092 6.87948209170837 2.2931606972361833 2.2931606972361833 0.0 0.0 0.6952778540174372 0.7187410560924617
32 52.92936478410327 39.10651285713429 33.992517659599386 6.948622036182685 2.3162073453942424 2.3162073453942424 0.0 0.0 0.6353234605105568 0.7722461398575527
33 29.065912281095606 15.874374449522536 23.456216982794718 7.018456848651076 2.339485616216976 2.339485616216976 0.0 0.0 0.6411270229476993 0.7674347792784871
34 20.00991751324851 17.030123068648944 23.514630178115056 7.088993512652892 2.3629978375510254 2.3629978375510254 0.0 -0.0 0.7453722743584635 0.6666484625480594
35 21.627168116996373 40.01574860748748 36.86907115585421 7.160239081913624 2.3867463606379253 2.3867463606379253 0.0 -0.0 0.7109313362059317 0.7032614273514853
36 38.680293611751566 4.2059348345495975 59.91999006202963 7.232200681049441 2.410733560349875 2.410733560349875 0.0 -0.0 0.739632735620696 0.6730107104632479
37 27.293653156946206 50.725166629177465 26.83742764731105 7.304885506280404 2.434961835426816 2.434961835426816 0.0 0.0 0.5163603530767541 0.8563714064414165
38 16.32029129252941 14.050697710081176 16.677038386158117 7.378300826149205 2.4594336087163495 2.4594336087163495 0.0 0.0 0.5145463711011363 0.8574625542766586
39 10.695068011560643 39.28530217547802 25.07530674023469 7.4524539822491755 2.484151327416392 2.484151327416392 0.0 0.0 0.5880831456971182 0.8088004783300898
40 57.767103877350415 15.494644662189678 12.849665593594525 7.527352389957955 2.5091174633193125 2.5091174633193125 0.0 -0.0 0.8608342640850161 0.5088854191045453
41 6.717109885651409 17.27262097854364 30.64767459789303 7.603003539178354 2.5343345130594566 2.5343345130594566 0.0 0.0 0.5813114541301716 0.8136811373609846
42 13.921543947633687 56.24124678890239 41.54964316985982 7.679414995088473 2.5598049983628752 2.5598049983628752 0.0 0.0 0.6858728758951139 0.7277213739552836
43 60.33428044764607 43.54381230946484 40.478806629453956 7.756594398897993 2.58553146629929 2.58553146629929 0.0 -0.0 0.8971229945165649 0.4417808650333688
44 44.60805788238964 14.580318010266055 23.186403461092123 7.834549468610923 2.6115164895369585 2.6115164895369585 0.0 -0.0 0.7662793896249596 0.6425075073771507
45 47.64741028069415 56.672097675202934 41.073693033902885 7.913287999799803 2.6377626665998806 2.6377626665998806 0.0 -0.0 0.8021859139948743 0.5970743332184094
46 16.439906941276565 55.231282771282174 13.73526495848564 7.992817866382676 2.6642726221276125 2.6642726221276125 0.0 0.0 0.6689296931602822 0.7433256793683982
47 47.676766352686144 32.56570640880605 17.887732782319244 8.073147021413272 2.6910490071377553 2.6910490071377553 0.0 -0.0 0.8121614142020023 0.5834328044268712
48 0.06053862287687837 48.229884771251 13.238955382731213 8.154283497873573 2.718094499291192 2.718094499291192 0.0 0.0 0.43861391052531945 0.8986756019241242
49 24.555250085403557 60.400323299869946 9.04974177800785 8.236235409478835 2.7454118031595924 2.7454118031595924 0.0 -0.0 0.7611420715427216 0.6485851886434459
50 25.831376820614125 26.733396135550315 60.13751426437623 8.319010951488682 2.7730036504961895 2.7730036504961895 0.0 0.0 0.5689873473401131 0.8223462765568174
51 46.59379050587643 26.268571860280904 41.04237444219166 8.402618401526176 2.80087280050874 2.80087280050874 0.0 -0.0 0.9816329176571261 0.1907794930592849
52 36.357328274591225 10.396769588931575 19.987354988260346 8.487066120406112 2.829022040135334 2.829022040135334 0.0 -0.0 0.8312938914163103 0.5558331279205367
53 9.223401465771431 54.143794884841114 3.918334888365124 8.57236255297038 2.8574541843235144 2.8574541843235144 0.0 0.0 0.4937832216878833 0.8695850332081013
54 39.37456973629873 50.2423801840074 39.84939410164045 8.658516228933815 2.8861720763112526 2.8861720763112526 0.0 -0.0 0.7425013715714329 0.6698445440656666
55 21.82479699514856 38.10132296337053 17.386735101308776 8.658516228933815 2.8861720763112526 2.8861720763112526 0.0 -0.0 0.899222239431846 0.4374921303419936
56 43.778186297327004 3.0075233328380375 17.675577674665103 8.74553576373558 2.915178587911882 2.915178587911882 0.0 0.0 0.591041689671776 0.8066410112744902
57 50.89875507520097 60.316243338357125 54.08909739310349 8.74553576373558 2.915178587911882 2.915178587911882 0.0 0.0 0.6906372933410847 0.7232013060320761
58 27.04673636496754 41.523697536115975 31.864061773073644 8.833429859401713 2.944476619800547 2.944476619800547 0.0 -0.0 0.9778925487455288 0.20910801779935065
59 34.37180507118454 58.11584955269937 23.444027477835835 8.833429859401713 2.944476619800547 2.944476619800547 0.0 -0.0 0.8334397726994561 0.5526103014626843
60 51.598959997437674 23.838982986951343 54.6368347939063 8.922207305415148 2.9740691018049907 2.9740691018049907 0.0 -0.0 0.8251393648538317 0.5649292243888745
61 5.344942854922747 12.866173651894409 41.55822797624722 8.922207305415148 2.9740691018049907 2.9740691018049907 0.0 -0.0 0.8342848482439009 0.5513336485202505
62 17.78192691043568 8.86155310716467 39.44262909823247 9.01187697959402 3.0039589931979735 3.0039589931979735 0.0 0.0 0.6993489688984815 0.7147803996337831
63 32.3458922122567 9.39721923311504 48.043908656608814 9.01187697959402 3.0039589931979735 3.0039589931979735 0.0 0.0 0.6638694557235675 0.747848477806363
64 43.551033590754216 30.164377517213424 46.84020114642274 9.102447848980903 3.034149282993652 3.034149282993652 0.0 0.0 0.5469534661185369 0.8371630103515794
65 8.307636589584096 28.192042027991288 6.044956131478643 9.102447848980903 3.034149282993652 3.034149282993652 0.0 0.0 0.534266604389083 0.8453160328744268
66 23.359490451435658 57.58705464265111 32.52713450878303 9.193928970737987 3.064642990246028 3.064642990246028 0.0 0.0 0.49259387534365895 0.8702593142126752
67 52.77834285863824 15.381518661889366 6.059191131861568 9.193928970737987 3.064642990246028 3.064642990246028 0.0 -0.0 0.7991221049958454 0.6011687461162707
68 35.919808776845166 20.948478173830186 23.762050584199205 9.286329493054014 3.0954431643513485 3.0954431643513485 0.0 -0.0 0.8113628171424923 0.5845428803420658
69 34.46817140799016 12.148894283595977 54.98050689312507 9.286329493054014 3.0954431643513485 3.0954431643513485 0.0 0.0 0.69974083585519 0.7143967823532522
70 7.2562429581554415 1.412222955817036 15.537113104601008 9.37965865605773 3.126552885352626 3.126552885352626 0.0 -0.0 0.9226100212719841 0.3857340387475665
71 12.998475458231104 0.2315187909017986 24.462755220378593 9.37965865605773 3.126552885352626 3.126552885352626 0.0 -0.0 0.8908476943010929 0.4543020862360491
72 12.121248602908627 45.28438154594307 8.886872043048998 9.473925792743634 3.1579752642478978 3.1579752642478978 0.0 -0.0 0.9180976465577227 0.39635427509384946
73 39.42155563553088 39.38172236027197 29.52646495309581 9.473925792743634 3.1579752642478978 3.1579752642478978 0.0 0.0 0.6852526383261238 0.7283054453092375
74 41.342070040326234 19.68773952378954 15.419721657785173 9.569140329903748 3.189713443301253 3.189713443301253 0.0 0.0 0.6622208999947843 0.7493086677799063
75 50.32242268714279 38.08125754534666 45.87964674570483 9.569140329903748 3.189713443301253 3.189713443301253 0.0 0.0 0.6669694181073614 0.7450850926636016
76 2.0603026824154274 10.559129091548842 30.97435882917688 9.665311789071003 3.221770596357074 3.221770596357074 0.0 0.0 0.4849872773235938 0.8745212066235144
77 14.672921767890672 49.97142776546208 18.871521413020353 9.665311789071003 3.221770596357074 3.221770596357074 0.0 -0.0 0.724549744492829 0.6892225096116464
78 4.313818775253753 15.295784286894301 16.31600190709935 9.762449787471917 3.254149929157267 3.254149929157267 0.0 0.0 0.646327957303847 0.7630597431442944
79 0.27428256907968784 28.71243320864967 27.19261204082061 9.762449787471917 3.254149929157267 3.254149929157267 0.0 0.0 0.4210348644808628 0.9070444547493698
80 1.984639512431605 60.7435104273662 23.187181156932226 9.860564038986755 3.2868546796622575 3.2868546796622575 0.0 0.0 0.5786941501693628 0.8155446527074768
81 56.44728152822556 57.158879262018665 26.68724075557331 9.860564038986755 3.2868546796622575 3.2868546796622575 0.0 0.0 0.683142879342022 0.730284743373632
82 13.113041790868444 59.21002617452563 6.176789696386361 9.95966435512264 3.3198881183741893 3.3198881183741893 0.0 0.0 0.3480344086077516 0.937481760049257
83 15.28643509393511 41.97305328850834 3.7997680678169656 9.95966435512264 3.3198881183741893 3.3198881183741893 0.0 -0.0 0.8280938516825816 0.560589486884571
84 34.08462756315505 18.72527116208326 4.375902451856243 10.059760645993853 3.3532535486646387 3.3532535486646387 0.0 -0.0 0.8521868438699086 0.5232375972109076
85 18.428472326467276 48.5925849487695 25.35411492128752 10.059760645993853 3.3532535486646387 3.3532535486646387 0.0 0.0 0.2683204071818837 0.9633297250109892
86 6.123234411785821 59.1072162177557 56.03964377107836 10.160862921312761 3.386954307104231 3.386954307104231 0.0 0.0 0.5717525694490604 0.8204261083902665
87 8.832176177035798 60.577765169295674 44.035262534226 10.160862921312761 3.386954307104231 3.386954307104231 0.0 -0.0 0.7407334016199733 0.6717990977401677
88 35.50074765054819 47.152834049435526 54.7552761229614 10.262981291391341 3.4209937637970937 3.4209937637970937 0.0 0.0 0.6524446383875427 0.7578363898885753
89 38.10571820017885 15.61930524484498 44.222012789477766 10.262981291391341 3.4209937637970937 3.4209937637970937 0.0 0.0 0.3815125934194192 0.9243636411404275
90 19.58576856840131 17.581406010914225 50.674039933728835 10.366125968151682 3.4553753227171966 3.4553753227171966 0.0 -0.0 0.7664413141092511 0.642314340511314
91 30.410805321197067 1.4979571342292388 28.730856875205987 10.366125968151682 3.4553753227171966 3.4553753227171966 0.0 -0.0 0.7164030651197486 0.6976866404676452
92 54.29492340503019 18.477194531377933 36.42891871964302 10.47030726614707 3.4901024220489707 3.4901024220489707 0.0 0.0 0.3159382626609752 0.9487797500931208
93 17.75852345678903 24.269407636261846 32.39986597022246 10.47030726614707 3.4901024220489707 3.4901024220489707 0.0 -0.0 0.807675111463051 0.5896277760783901
94 52.827672221540766 15.116561989489519 46.28113440607046 10.575535603594329 3.525178534531421 3.525178534531421 0.0 0.0 0.5856043209472178 0.8105970511221638
95 42.953003802869254 60.17385019955093 53.204073375091674 10.575535603594329 3.525178534531421 3.525178534531421 0.0 -0.0 0.8283891439806925 0.5601530381377355
96 46.33145565184853 12.421086943055602 38.64461485986076 10.681821503415083 3.56060716780505 3.56060716780505 0.0 0.0 0.6380161188650698 0.7700230074928626
97 27.776572291956057 58.76013966820885 17.825140779204208 10.681821503415083 3.56060716780505 3.56060716780505 0.0 0.0 0.5652655734899162 0.8249089837231233
98 19.30666244467993 22.09349241825309 39.51252559686458 10.78917559428753 3.59639186476247 3.59639186476247 0.0 -0.0 0.9884337224668884 0.15165347437579585
99 49.567813080329145 36.24578933919084 7.521916448953479 10.78917559428753 3.59639186476247 3.59639186476247 0.0 0.0 0.644584962479319 0.7645326848117973
100 28.245819795355278 38.62676412733342 55.396185423923185 10.897608611710691 3.6325362039036033 3.6325362039036033 0.0 -0.0 0.7665764345255346 0.6421530736748979
101 19.216847847486413 20.083725874690064 60.721674865019374 10.897608611710691 3.6325362039036033 3.6325362039036033 0.0 -0.0 0.7486465484609144 0.6629693397718779
102 42.13197092740837 44.33781407271614 9.091151262032946 11.007131399076187 3.6690437996921084 3.6690437996921084 0.0 -0.0 0.764238184631255 0.644934102952793
103 25.396244014180773 45.54971051199994 0.6543361262152073 11.007131399076187 3.6690437996921084 3.6690437996921084 0.0 -0.0 0.7262700822056904 0.6874094614514261
104 49.830335527558596 60.261980284181256 47.319183495302745 11.117754908754414 3.7059183029180582 3.7059183029180582 0.0 0.0 0.6864264585310771 0.7271992278794606
105 20.83915148131949 43.47959143779886 11.45586098501405 11.117754908754414 3.7059183029180582 3.7059183029180582 0.0 -0.0 0.8498704758576332 0.5269916263713497
106 11.69732312900281 18.390881551238504 47.39413838146355 11.229490203187954 3.7431634010627133 3.7431634010627133 0.0 -0.0 0.793590538753224 0.6084521811953406
107 40.18652232298428 45.97935986514598 17.076810055337653 11.229490203187954 3.7431634010627133 3.7431634010627133 0.0 -0.0 0.8299364941277125 0.5578578812878792
108 51.6744753402248 41.7569079999324 56.350772619831496 11.342348456000078 3.7807828186666774 3.7807828186666774 0.0 -0.0 0.7596155095013813 0.650372414640225
109 59.51590590605843 39.945559609977565 4.106984763533358 11.342348456000078 3.7807828186666774 3.7807828186666774 0.0 -0.0 0.746179639226726 0.6657446552571586
110 41.88187849850654 19.621370270221128 53.367594789960734 11.456340953109695 3.8187803177032174 3.8187803177032174 0.0 -0.0 0.7434755474029917 0.6687631198068729
111 33.71524280957571 41.03232387376624 24.813799383190904 11.456340953109695 3.8187803177032174 3.8187803177032174 0.0 -0.0 0.7635489887521677 0.6457499065238353
112 54.93291669588675 59.51644408023468 17.455792407875887 11.571479093861678 3.8571596979539713 3.8571596979539713 0.0 -0.0 0.925703395166632 0.3782502137170186
113 19.416059701393372 8.824204037883929 9.09497453302071 11.571479093861678 3.8571596979539713 3.8571596979539713 0.0 -0.0 0.7476030998596368 0.6641457709571461
114 8.714485401897129 60.36578254198573 35.79888613042993 11.687774392166197 3.8959247973886657 3.8959247973886657 0.0 -0.0 0.7095009508808979 0.7047044775642494
115 27.47675925431753 17.43250535690738 52.92366931657947 11.687774392166197 3.8959247973886657 3.8959247973886657 0.0 0.0 0.692332939305712 0.7215782016887105
116 14.069156380391263 33.974875171638615 54.815918254586215 11.80523847764932 3.935079492549815 3.935079492549815 0.0 0.0 0.4838188577050026 0.8751681626573412
117 46.5983543574668 40.06729324016299 24.106252401498626 11.80523847764932 3.935079492549815 3.935079492549815 0.0 0.0 0.4072390243389004 0.9133216175343166
118 45.24327646136352 17.187027334871033 60.78806490888085 11.923883096818123 3.974627698939376 3.974627698939376 0.0 -0.0 0.9854258972554679 0.17010526452245991
119 34.94674867177253 28.38693188583392 60.26966698012639 11.923883096818123 3.974627698939376 3.974627698939376 0.0 0.0 0.693566054094668 0.720393037589587
120 27.414385147850496 25.270259855415645 30.27314783422258 12.043720114233441 4.014573371411077 4.014573371411077 0.0 -0.0 0.8546373086497397 0.5192254526349123
121 0.1003082681080869 41.53418415645814 53.773867773222854 12.043720114233441 4.014573371411077 4.014573371411077 0.0 -0.0 0.738138054050796 0.6746496966293722
122 59.0674311021339 24.555690124155785 0.4465289025717475 12.164761513696366 4.054920504565448 4.054920504565448 0.0 0.0 0.30497028615780525 0.9523618663936657
123 44.196527022033365 43.52983315149394 52.823698795588044 12.164761513696366 4.054920504565448 4.054920504565448 0.0 -0.0 0.8240326158671573 0.5665423620411186
124 6.4163479037929 39.06809449130364 60.88274347421271 12.287019399448122 4.095673133149367 4.095673133149367 0.0 -0.0 0.7351480847541838 0.6779065521753388
125 0.40105851909902007 1.5501713096528726 49.76899481433144 12.287019399448122 4.095673133149367 4.095673133149367 0.0 0.0 0.6354145425399089 0.7721711980699606
126 36.7281442416879 0.05719853256812968 43.57721818519112 12.410505997378975 4.136835332459686 4.136835332459686 0.0 -0.0 0.9631928649301144 0.2688112812880415
127 2.1129436010516764 29.14443248953342 37.25267894940143 12.410505997378975 4.136835332459686 4.136835332459686 0.0 0.0 0.6645731125154195 0.7472232451694524
128 8.488141836875133 47.2666097825017 49.34425315599945 12.535233656251501 4.178411218750499 4.178411218750499 0.0 -0.0 0.837305869343264 0.5467347447925007
129 35.871297655920415 58.59986531180171 12.726249148478312 12.535233656251501 4.178411218750499 4.178411218750499 0.0 0.0 0.6718759690179156 0.7406636768846148
130 29.70503867448792 35.440094654218804 15.27585477897443 12.661214848935954 4.22040494964534 4.22040494964534 0.0 -0.0 0.8172568989423515 0.5762735124323614
131 9.754792192484949 37.74157357918828 36.87231425823281 12.661214848935954 4.22040494964534 4.22040494964534 0.0 0.0 0.5650588956672867 0.8250505708302167
132 25.917918399001906 60.369463670123814 52.36457410032918 12.788462173656317 4.262820724552158 4.262820724552158 0.0 0.0 0.5632303093681869 0.8262999568008076
133 16.092385024366063 48.007001646796006 33.29790341482647 12.788462173656317 4.262820724552158 4.262820724552158 0.0 0.0 0.7047758212396541 0.7094300823872436
134 59.97662004651422 29.48637856832276 45.536795408653 12.91698835525105 4.3056627850836735 4.3056627850836735 0.0 -0.0 0.7457546235329385 0.6662207152882933
135 41.626837201549314 40.88344098329237 0.12283359699916674 12.91698835525105 4.3056627850836735 4.3056627850836735 0.0 0.0 0.5807371118896761 0.8140911539097067
136 20.953150362913888 60.79186876660954 0.0028150604779435514 13.046806246445477 4.3489354154818844 4.3489354154818844 0.0 -0.0 0.7765636880913803 0.6300387593933514
137 1.1415726715801264 43.99729115804649 20.033807167460456 13.046806246445477 4.3489354154818844 4.3489354154818844 0.0 -0.0 0.9207785641385271 0.39008567754147583
138 55.993548232384356 18.292887459284103 24.658969087581784 13.177928829137056 4.392642943045653 4.392642943045653 0.0 0.0 0.5933031767685688 0.8049790931672228
139 6.685747911065232 9.033821519071282 0.3178022187653147 13.177928829137056 4.392642943045653 4.392642943045653 0.0 0.0 0.36293328461656904 0.9318151270061183
140 60.832699111278544 1.5966903493736437 40.887995915638115 13.310369215693452 4.436789738564477 4.436789738564477 0.0 0.0 0.5657838974393875 0.8245535649054563
141 17.850575569571333 45.156006994299766 54.520372015227586 13.310369215693452 4.436789738564477 4.436789738564477 0.0 0.0 0.5898626798291705 0.8075035720941112
142 7.37424740439048 15.135898884700381 8.726737676858304 13.444140650262856 4.481380216754327 4.481380216754327 0.0 0.0 0.494526605223718 0.8691624915548904
143 31.094394455201222 1.166400524258886 60.74694120637571 13.444140650262856 4.481380216754327 4.481380216754327 0.0 0.0 0.6621201748514545 0.7493976741721844
144 9.760007311270703 32.772193443832165 45.70308459836228 13.579256510101043 4.526418836700443 4.526418836700443 0.0 -0.0 0.8358120424685423 0.5490156916378287
145 11.039721488324581 28.7653094861215 15.433488648915786 13.579256510101043 4.526418836700443 4.526418836700443 0.0 -0.0 0.7380766977143534 0.6747168208152773
146 18.062642464176026 60.44226478896087 47.031848766117214 13.715730306906273 4.57191010230218 4.57191010230218 0.0 0.0 0.5600689403365469 0.8284460043179022
147 37.31390674893651 17.306678747397093 33.14983828316826 13.715730306906273 4.57191010230218 4.57191010230218 0.0 -0.0 0.8053653384335279 0.5927787712543771
148 0.5825149668046312 19.796069489026994 53.331067962958535 13.853575688172338 4.6178585627241135 4.6178585627241135 0.0 -0.0 0.9475491048281723 0.31961022189430877
149 45.854590302544445 60.886316066089215 25.67419709513075 13.853575688172338 4.6178585627241135 4.6178585627241135 0.0 -0.0 0.8855269061838191 0.46458809543994295
150 19.006323967341835 31.326262730573696 24.69099960662338 13.992806438551677 4.664268812850561 4.664268812850561 0.0 -0.0 0.8997163709941051 0.43647502994466686
151 33.15393862681718 33.41631639564948 37.82142158642361 13.992806438551677 4.664268812850561 4.664268812850561 0.0 0.0 0.6949034215940625 0.7191030765174521
152 57.3118077729499 60.779482970644054 60.86746656004213 14.133436481235636 4.71114549374519 4.71114549374519 0.0 0.0 0.6496096252583186 0.7602679361723385
153 32.312089303328264 41.11578801575656 6.836895419899462 14.133436481235636 4.71114549374519 4.71114549374519 0.0 0.0 0.6980264017745981 0.7160720232110785
154 37.73094676236432 10.691944785150733 8.00793920809147 14.27547987934532 4.758493293115105 4.758493293115105 0.0 -0.0 0.9126309719920443 0.4087844284716046
155 20.43965182179824 26.442537595260703 7.689080874418059 14.27547987934532 4.758493293115105 4.758493293115105 0.0 0.0 0.34897032679986184 0.9371337743423815
156 34.366255566253734 41.248315689528894 46.93706924126914 14.418950837339633 4.806316945779789 4.806316945779789 0.0 0.0 0.6995675014656925 0.7145665195718649
157 25.744750872401873 33.10462749695492 46.03341109717305 14.418950837339633 4.806316945779789 4.806316945779789 0.0 0.0 0.63565327495599 0.7719746848425306
158 52.246494261367324 0.3507129961149452 34.088161303759485 14.563863702433354 4.8546212341443535 4.8546212341443535 0.0 -0.0 0.7426985308561326 0.6696259345814963
159 23.354114235411547 17.258571665916506 16.09984266771322 14.563863702433354 4.8546212341443535 4.8546212341443535 0.0 0.0 0.4891044501540252 0.8722252213961303
160 47.21067114492003 56.003952628328044 1.8238001839228808 14.710232966033784 4.903410988677956 4.903410988677956 0.0 0.0 0.6466947184788655 0.7627489371290798
161 27.46753864786611 7.068790763571408 36.850829916238375 14.710232966033784 4.903410988677956 4.903410988677956 0.0 0.0 0.6377575578887067 0.7702371695496348
162 60.53476340046502 0.5747188100567353 8.603849078848116 14.858073265189102 4.952691088396339 4.952691088396339 0.0 0.0 0.6701572236966805 0.7422191694689361
163 38.30306363506324 60.51668438863305 32.81490235154412 14.858073265189102 4.952691088396339 4.952691088396339 0.0 -0.0 0.7797338016261434 0.6261111711203069
164 45.19331046335764 39.90754851230354 35.827246931432114 15.007399384053182 5.0024664613510605 5.0024664613510605 0.0 0.0 0.6966086930688543 0.7174512727293072
165 59.87413871796622 30.24547061142155 15.510900388451041 15.007399384053182 5.0024664613510605 5.0024664613510605 0.0 -0.0 0.8994069955971553 0.43711217813153935
7_T 18.85563352682349 -4.844908920945478 39.19699247228806 5.411592283046288 1.8038640943487452 1.8038640943487452 0.0 -0.0 0.7603958793842515 0.6494598575858641
11_F 17.873949714133442 37.187769499233205 -0.7725006538088408 5.632443553730961 1.877481184577006 1.877481184577006 0.0 0.0 0.49983922045674145 0.866118209999765
26_R 63.04531805241712 51.7105994788792 31.457869515004678 6.543965790958811 2.181321930319586 2.181321930319586 0.0 0.0 0.5361151400853296 0.8441448670526212
30_T 22.76965764671736 -1.9367497304946966 22.824377757896347 6.811030101176371 2.2703433670588056 2.2703433670588056 0.0 -0.0 0.8433777540022546 0.5373210995802349
31_L -1.6029488033802295 42.726038981349085 31.10682663489092 6.87948209170837 2.2931606972361833 2.2931606972361833 0.0 0.0 0.6952778540174372 0.7187410560924617
36_BB 38.680293611751566 65.1059348345496 59.91999006202963 7.232200681049441 2.410733560349875 2.410733560349875 0.0 -0.0 0.739632735620696 0.6730107104632479
36_FT 38.680293611751566 4.2059348345495975 -0.9800099379703653 7.232200681049441 2.410733560349875 2.410733560349875 0.0 -0.0 0.739632735620696 0.6730107104632479
36_FB 38.680293611751566 65.1059348345496 -0.9800099379703653 7.232200681049441 2.410733560349875 2.410733560349875 0.0 -0.0 0.739632735620696 0.6730107104632479
40_L -3.1328961226495835 15.494644662189678 12.849665593594525 7.527352389957955 2.5091174633193125 2.5091174633193125 0.0 -0.0 0.8608342640850161 0.5088854191045453
42_T 13.921543947633687 -4.658753211097611 41.54964316985982 7.679414995088473 2.5598049983628752 2.5598049983628752 0.0 0.0 0.6858728758951139 0.7277213739552836
43_L -0.5657195523539258 43.54381230946484 40.478806629453956 7.756594398897993 2.58553146629929 2.58553146629929 0.0 -0.0 0.8971229945165649 0.4417808650333688
45_T 47.64741028069415 -4.227902324797064 41.073693033902885 7.913287999799803 2.6377626665998806 2.6377626665998806 0.0 -0.0 0.8021859139948743 0.5970743332184094
46_T 16.439906941276565 -5.668717228717824 13.73526495848564 7.992817866382676 2.6642726221276125 2.6642726221276125 0.0 0.0 0.6689296931602822 0.7433256793683982
48_R 60.960538622876875 48.229884771251 13.238955382731213 8.154283497873573 2.718094499291192 2.718094499291192 0.0 0.0 0.43861391052531945 0.8986756019241242
49_T 24.555250085403557 -0.4996767001300526 9.04974177800785 8.236235409478835 2.7454118031595924 2.7454118031595924 0.0 -0.0 0.7611420715427216 0.6485851886434459
50_F 25.831376820614125 26.733396135550315 -0.7624857356237698 8.319010951488682 2.7730036504961895 2.7730036504961895 0.0 0.0 0.5689873473401131 0.8223462765568174
53_T 9.223401465771431 -6.756205115158885 3.918334888365124 8.57236255297038 2.8574541843235144 2.8574541843235144 0.0 0.0 0.4937832216878833 0.8695850332081013
56_B 43.778186297327004 63.90752333283804 17.675577674665103 8.74553576373558 2.915178587911882 2.915178587911882 0.0 0.0 0.591041689671776 0.8066410112744902
57_T 50.89875507520097 -0.5837566616428731 54.08909739310349 8.74553576373558 2.915178587911882 2.915178587911882 0.0 0.0 0.6906372933410847 0.7232013060320761
59_T 34.37180507118454 -2.7841504473006253 23.444027477835835 8.833429859401713 2.944476619800547 2.944476619800547 0.0 -0.0 0.8334397726994561 0.5526103014626843