ITEM: TIMESTEP
40
ITEM: NUMBER OF ATOMS
169
ITEM: BOX BOUNDS ff ff ff
0 60.9
60.9 0
60.9 0
ITEM: ATOMS id x y z AsphericalShapeX AsphericalShapeY AsphericalShapeZ OrientationX OrientationY OrientationZ OrientationW
1 34.71062911893161 17.041359400057313 0.8072029445308136 0.2894103503850964 0.09647011679503203 0.09647011679503203 0.0 -0.0 0.7863642711635499 0.6177630881150306
2 29.491441773595223 59.83708491257533 27.943174130890217 0.29231897276235425 0.09743965758745145 0.09743965758745145 0.0 -0.0 0.8896314041555925 0.4566792799549252
3 20.94001996528075 22.252473071499075 43.06626157984698 0.2952568272804881 0.09841894242682932 0.09841894242682932 0.0 0.0 0.631512325711268 0.7753658378305981
4 40.84994931489861 27.514138697289958 22.54408138961189 0.29822420772739827 0.09940806924246615 0.09940806924246615 0.0 0.0 0.5765741652112841 0.8170448164029381
5 18.5361833092986 30.197050406038763 48.2322662502839 0.3012214108436022 0.10040713694786733 0.10040713694786733 0.0 -0.0 0.8873914294477543 0.4610167577677315
6 18.18502025875499 17.98781501264702 9.017192475480245 0.30424873635190924 0.10141624545063632 0.10141624545063632 0.0 0.0 0.643710445538684 0.7652691437033046
7 0.9469035838828004 5.023684709546593 15.269281281279572 0.30730648698739294 0.10243549566246421 0.10243549566246421 0.0 -0.0 0.7603958793842515 0.6494598575858641
8 44.06218089784276 42.46652058456679 58.38002035203316 0.31039496852766474 0.10346498950922149 0.10346498950922149 0.0 -0.0 0.7854601334426244 0.6189122545016335
9 50.24134550902545 2.741738452901367 4.275482925426882 0.31351448982345287 0.104504829941151 0.104504829941151 0.0 -0.0 0.7176002965020949 0.6964551776389529
10 20.43376647893215 47.16223645996587 7.088350478938555 0.3166653628294861 0.10555512094316205 0.10555512094316205 0.0 0.0 0.38534345666417513 0.9227732226317065
11 37.46158978570678 52.12621983776532 48.6072268065795 0.3198479026356911 0.10661596754523033 0.10661596754523033 0.0 0.0 0.49983922045674145 0.866118209999765
12 24.098417794962483 48.909558970532146 13.458432948893085 0.3230624274987003 0.10768747583290018 0.10768747583290018 0.0 0.0 0.2746680171135514 0.9615391205639581
13 34.97502916149011 52.1003011198159 0.9570661791749911 0.3263092588736792 0.10876975295789297 0.10876975295789297 0.0 -0.0 0.7886508549344257 0.614841303924191
14 9.384124592810716 4.137570261424419 38.431359823487355 0.32958872144647067 0.10986290714882356 0.10986290714882356 0.0 -0.0 0.7750680292508737 0.6318777967559605
15 13.561644133676367 3.1288405526958885 34.86518269928158 0.332901143166065 0.11096704772202162 0.11096704772202162 0.0 0.0 0.6340811782098568 0.7732664866913604
16 14.653312879747983 50.37219713338592 44.189281696708534 0.3362468552773943 0.11208228509246469 0.11208228509246469 0.0 -0.0 0.7629176367612683 0.6464956918020424
17 35.42719023615518 39.3786247349768 29.19239885649639 0.3396261923544584 0.11320873078481927 0.11320873078481927 0.0 0.0 0.6579222258448839 0.7530858813836
18 11.911215110451167 50.64219752329453 47.15183766907854 0.3430394923337805 0.1143464974445934 0.1143464974445934 0.0 0.0 0.506211649243881 0.8624092799650234
19 1.4375221667216387 13.863866694245308 48.1862941191404 0.3464870965482029 0.115495698849401 0.115495698849401 0.0 0.0 0.6434542777811493 0.7654845474633303
20 22.020006831805386 2.8378908234294262 13.848053524908565 0.3499693497610204 0.11665644992034005 0.11665644992034005 0.0 -0.0 0.7861857262579329 0.6179902942832407
21 32.32931048873207 29.462000176846388 45.199429582356785 0.3534866002004565 0.1178288667334855 0.1178288667334855 0.0 0.0 0.6069811502172251 0.7947162281474907
22 26.150032794464053 7.712121290463946 18.974075646104772 0.3570391995944853 0.11901306653149511 0.11901306653149511 0.0 -0.0 0.8910647246123514 0.45387625687131333
23 48.92030305932381 52.93092154294673 31.033679464571456 0.36062750320600745 0.12020916773533576 0.12020916773533576 0.0 -0.0 0.7582829367961579 0.651925599868416
24 23.097756600227235 43.70745432483362 43.63290375683296 0.36425186986837393 0.12141728995612482 0.12141728995612482 0.0 0.0 0.5255054740936084 0.8507902189715464
25 58.156133498134075 18.87408775193836 36.640966620976165 0.36791266202127165 0.12263755400709045 0.12263755400709045 0.0 0.0 0.6637035342538496 0.7479957343587923
26 54.069136658906864 36.349253464910895 21.286713039154527 0.37161024574696633 0.12387008191565543 0.12387008191565543 0.0 0.0 0.5361151400853296 0.8441448670526212
27 56.93120943338025 43.84763815711435 56.46650929273508 0.3753449908069122 0.1251149969356373 0.1251149969356373 0.0 -0.0 0.7297620279401082 0.6837012378054764
28 42.60811358517214 27.158374927832547 32.46959187436686 0.37911727067872736 0.12637242355957579 0.12637242355957579 0.0 -0.0 0.9828164757017253 0.18458541407500267
29 41.71323866144907 44.47467089011804 20.52694540576338 0.38292746259354193 0.1276424875311806 0.1276424875311806 0.0 -0.0 0.8740853421614372 0.4857723897243679
30 13.605568074721337 21.915226149702967 39.736813687933434 0.3867759475737239 0.1289253158579079 0.1289253158579079 0.0 -0.0 0.8433777540022546 0.5373210995802349
31 20.873126408393492 39.252611939788025 34.205589203561665 0.3906631104709766 0.13022103682365885 0.13022103682365885 0.0 0.0 0.6952778540174372 0.7187410560924617
32 28.86021448926744 28.51633850060556 49.016571265049365 0.3945893400048306 0.13152978000161042 0.13152978000161042 0.0 0.0 0.6353234605105568 0.7722461398575527
33 19.505755375954287 24.376083203235165 17.43154756790786 0.3985550288015107 0.1328516762671703 0.1328516762671703 0.0 0.0 0.6411270229476993 0.7674347792784871
34 10.82444325137305 18.88522104392917 19.79570328396239 0.40256057343320156 0.13418685781106715 0.13418685781106715 0.0 -0.0 0.7453722743584635 0.6666484625480594
35 25.840458253146057 20.12765563725112 51.947487355186134 0.40660637445770365 0.13553545815256784 0.13553545815256784 0.0 -0.0 0.7109313362059317 0.7032614273514853
36 13.600476573829866 0.5205357223539964 39.61327191157292 0.41069283645849086 0.13689761215283047 0.13689761215283047 0.0 -0.0 0.739632735620696 0.6730107104632479
37 51.359278790761635 43.25998048308591 38.60990689146362 0.4148203680851698 0.13827345602838995 0.13827345602838995 0.0 0.0 0.5163603530767541 0.8563714064414165
38 53.514562515475845 32.88775311323021 39.724738697081825 0.4189893820943419 0.13966312736478062 0.13966312736478062 0.0 0.0 0.5145463711011363 0.8574625542766586
39 60.15222801576379 40.364288554348626 16.22055291438767 0.4232002953908818 0.1410667651302941 0.1410667651302941 0.0 0.0 0.5880831456971182 0.8088004783300898
40 52.05719944012951 7.6883083452545495 14.584438463147118 0.42745352906962986 0.14248450968987658 0.14248450968987658 0.0 -0.0 0.8608342640850161 0.5088854191045453
41 22.290524560398687 48.04502567704186 39.21874669336891 0.43174950845749654 0.1439165028191655 0.1439165028191655 0.0 0.0 0.5813114541301716 0.8136811373609846
42 32.68441457945924 24.913330419223833 23.045249120350956 0.4360886631560022 0.14536288771866734 0.14536288771866734 0.0 0.0 0.6858728758951139 0.7277213739552836
43 12.145909854757837 42.89032949460666 49.391559146585486 0.4404714270842309 0.14682380902807698 0.14682380902807698 0.0 -0.0 0.8971229945165649 0.4417808650333688
44 17.657207151797373 49.01933290348259 24.12594138806221 0.44489823852222926 0.1482994128407433 0.1482994128407433 0.0 -0.0 0.7662793896249596 0.6425075073771507
45 51.48669269559649 50.56270626452765 59.66305290960893 0.44936954015482944 0.1497898467182767 0.1497898467182767 0.0 -0.0 0.8021859139948743 0.5970743332184094
46 33.40833777996902 50.973091362629276 20.001012262722963 0.45388577911592126 0.15129525970530722 0.15129525970530722 0.0 0.0 0.6689296931602822 0.7433256793683982
47 28.723065604502846 53.22221985092058 37.885397846811294 0.45844740703316383 0.1528158023443881 0.1528158023443881 0.0 -0.0 0.8121614142020023 0.5834328044268712
48 22.507714236026434 41.30232516967403 34.50703404439638 0.4630548800731512 0.1543516266910504 0.1543516266910504 0.0 0.0 0.43861391052531945 0.8986756019241242
49 14.739149016608955 30.034036992078686 53.67491224259811 0.4677086589870258 0.15590288632900867 0.15590288632900867 0.0 -0.0 0.7611420715427216 0.6485851886434459
50 25.893292195298766 4.439240035523126 51.90917119291022 0.4724092091565577 0.15746973638551903 0.15746973638551903 0.0 0.0 0.5689873473401131 0.8223462765568174
51 32.62302044945799 41.305760572437336 43.21992161583324 0.47715700064067995 0.15905233354689355 0.15905233354689355 0.0 -0.0 0.9816329176571261 0.1907794930592849
52 59.50556690719956 55.30865550402701 0.5129971626450622 0.48195250822249974 0.16065083607416641 0.16065083607416641 0.0 -0.0 0.8312938914163103 0.5558331279205367
53 23.59971060050861 22.044271785743682 52.38279877492917 0.4867962114567692 0.1622654038189231 0.1622654038189231 0.0 0.0 0.4937832216878833 0.8695850332081013
54 11.331478868083234 15.408606433927066 13.912258379738324 0.4916885947178501 0.16389619823928342 0.16389619823928342 0.0 -0.0 0.7425013715714329 0.6698445440656666
55 24.001341956093242 46.40598441411533 15.095704025828422 0.4916885947178501 0.16389619823928342 0.16389619823928342 0.0 -0.0 0.899222239431846 0.4374921303419936
56 30.85511296605132 37.590279576056936 2.6347057334315673 0.496630147248144 0.16554338241604782 0.16554338241604782 0.0 0.0 0.591041689671776 0.8066410112744902
57 47.316355293950615 10.078856866521814 46.24458905672481 0.496630147248144 0.16554338241604782 0.16554338241604782 0.0 0.0 0.6906372933410847 0.7232013060320761
58 29.27344905332111 17.4022794111245 35.889206443940154 0.5016213632070222 0.16720712106900737 0.16720712106900737 0.0 -0.0 0.9778925487455288 0.20910801779935065
59 32.449341767055664 32.961132106107584 7.439927375618415 0.5016213632070222 0.16720712106900737 0.16720712106900737 0.0 -0.0 0.8334397726994561 0.5526103014626843
60 21.1693055522003 28.349394896049066 37.80792659584251 0.506662741720241 0.1688875805734136 0.1688875805734136 0.0 -0.0 0.8251393648538317 0.5649292243888745
61 44.68404032102834 17.617560231170778 11.41327172897641 0.506662741720241 0.1688875805734136 0.1688875805734136 0.0 -0.0 0.8342848482439009 0.5513336485202505
62 39.88019723653237 12.1520176473059 20.434083139703503 0.5117547869298522 0.1705849289766174 0.1705849289766174 0.0 0.0 0.6993489688984815 0.7147803996337831
63 30.28575362937185 33.886006466440755 26.420106811206697 0.5117547869298522 0.1705849289766174 0.1705849289766174 0.0 0.0 0.6638694557235675 0.747848477806363
64 11.787829275803428 37.768324577702714 25.876661430453254 0.5168980080446195 0.1722993360148734 0.1722993360148734 0.0 0.0 0.5469534661185369 0.8371630103515794
65 55.1328559314871 52.99441886319525 39.73531335860045 0.5168980080446195 0.1722993360148734 0.1722993360148734 0.0 0.0 0.534266604389083 0.8453160328744268
66 34.69265482569034 60.04820751237005 25.651587542215974 0.5220929193909419 0.17403097313031393 0.17403097313031393 0.0 0.0 0.49259387534365895 0.8702593142126752
67 53.52737034600439 10.024383712456222 55.92006588679312 0.5220929193909419 0.17403097313031393 0.17403097313031393 0.0 -0.0 0.7991221049958454 0.6011687461162707
68 9.655467840455174 37.00225749585931 27.65638660891264 0.5273400404642824 0.17578001348809394 0.17578001348809394 0.0 -0.0 0.8113628171424923 0.5845428803420658
69 44.99661240581589 55.86292357187716 32.0507448480492 0.5273400404642824 0.17578001348809394 0.17578001348809394 0.0 0.0 0.69974083585519 0.7143967823532522
70 31.083962979425216 28.2861232988037 13.777529767747108 0.5326398959811198 0.17754663199370638 0.17754663199370638 0.0 -0.0 0.9226100212719841 0.3857340387475665
71 8.362051536193707 35.26511837533883 8.013491537066198 0.5326398959811198 0.17754663199370638 0.17754663199370638 0.0 -0.0 0.8908476943010929 0.4543020862360491
72 45.208737014488314 26.82546920679122 12.005729369272032 0.5379930159314233 0.17933100531047466 0.17933100531047466 0.0 -0.0 0.9180976465577227 0.39635427509384946
73 40.481350851534216 35.048972207749365 26.690207913084116 0.5379930159314233 0.17933100531047466 0.17933100531047466 0.0 0.0 0.6852526383261238 0.7283054453092375
74 56.79431658160161 20.661386774103818 29.42183699601612 0.5433999356316501 0.18113331187721673 0.18113331187721673 0.0 0.0 0.6622208999947843 0.7493086677799063
75 35.78292040656513 28.875906088619608 46.904301717115196 0.5433999356316501 0.18113331187721673 0.18113331187721673 0.0 0.0 0.6669694181073614 0.7450850926636016
76 17.39426162967173 4.412252904786534 10.770680802680028 0.5488611957782737 0.1829537319260912 0.1829537319260912 0.0 0.0 0.4849872773235938 0.8745212066235144
77 36.516615911543845 42.763437873183655 38.56793997419071 0.5488611957782737 0.1829537319260912 0.1829537319260912 0.0 -0.0 0.724549744492829 0.6892225096116464
78 46.479727155279946 30.19631409701421 54.425180125144394 0.5543773425018614 0.1847924475006205 0.1847924475006205 0.0 0.0 0.646327957303847 0.7630597431442944
79 28.71964562169183 57.114989983815946 55.14384770272794 0.5543773425018614 0.1847924475006205 0.1847924475006205 0.0 0.0 0.4210348644808628 0.9070444547493698
80 25.581187631880752 47.29116849280594 40.618234339974 0.5599489274216821 0.1866496424738942 0.1866496424738942 0.0 0.0 0.5786941501693628 0.8155446527074768
81 15.692060300970663 33.93329263596755 25.28931274097924 0.5599489274216821 0.1866496424738942 0.1866496424738942 0.0 0.0 0.683142879342022 0.730284743373632
82 38.57723908652194 53.279237216772636 38.410934858829414 0.5655765077008711 0.18852550256695716 0.18852550256695716 0.0 0.0 0.3480344086077516 0.937481760049257
83 20.333826171142785 9.403286572361303 51.128746305316604 0.5655765077008711 0.18852550256695716 0.18852550256695716 0.0 -0.0 0.8280938516825816 0.560589486884571
84 49.450011800663056 60.75990548689215 11.798600441075275 0.5712606461021449 0.19042021536738152 0.19042021536738152 0.0 -0.0 0.8521868438699086 0.5232375972109076
85 53.57071268040322 44.63347596488949 56.03581791171311 0.5712606461021449 0.19042021536738152 0.19042021536738152 0.0 0.0 0.2683204071818837 0.9633297250109892
86 49.62543904023042 32.005549302024356 5.55765651580104 0.577001911044081 0.1923339703480269 0.1923339703480269 0.0 0.0 0.5717525694490604 0.8204261083902665
87 44.07377171197874 37.12854347505696 48.772243605644114 0.577001911044081 0.1923339703480269 0.1923339703480269 0.0 -0.0 0.7407334016199733 0.6717990977401677
88 10.930545147272667 14.60934454675651 51.530137500066715 0.5828008766579577 0.19426695888598616 0.19426695888598616 0.0 0.0 0.6524446383875427 0.7578363898885753
89 22.64326702310924 59.27410593971032 45.14500902766968 0.5828008766579577 0.19426695888598616 0.19426695888598616 0.0 0.0 0.3815125934194192 0.9243636411404275
90 31.06854527275626 35.433107260553825 34.53042711073802 0.5886581228451702 0.19621937428172354 0.19621937428172354 0.0 -0.0 0.7664413141092511 0.642314340511314
91 50.845771551467045 35.240865317519926 29.889466672366666 0.5886581228451702 0.19621937428172354 0.19621937428172354 0.0 -0.0 0.7164030651197486 0.6976866404676452
92 45.43455958799551 0.7905919857114356 36.49133262961607 0.5945742353352165 0.19819141177840577 0.19819141177840577 0.0 0.0 0.3159382626609752 0.9487797500931208
93 28.5523558517446 18.830265229092035 26.681046065008815 0.5945742353352165 0.19819141177840577 0.19819141177840577 0.0 -0.0 0.807675111463051 0.5896277760783901
94 19.780373856090154 20.707168132265494 2.628430063064231 0.6005498057442771 0.20018326858142582 0.20018326858142582 0.0 0.0 0.5856043209472178 0.8105970511221638
95 25.391179081748042 44.333914323457314 49.56647985691572 0.6005498057442771 0.20018326858142582 0.20018326858142582 0.0 -0.0 0.8283891439806925 0.5601530381377355
96 24.24640088382344 44.04069252535598 31.508192089863492 0.6065854316343714 0.20219514387812387 0.20219514387812387 0.0 0.0 0.6380161188650698 0.7700230074928626
97 39.683444128476296 59.632826662123655 21.33909603173044 0.6065854316343714 0.20219514387812387 0.20219514387812387 0.0 0.0 0.5652655734899162 0.8249089837231233
98 14.998680625601445 8.328965078418138 17.26363651604577 0.6126817165731195 0.20422723885770638 0.20422723885770638 0.0 -0.0 0.9884337224668884 0.15165347437579585
99 52.54989403325347 25.505073912508987 53.8422046493165 0.6126817165731195 0.20422723885770638 0.20422723885770638 0.0 0.0 0.644584962479319 0.7645326848117973
100 30.18643757081377 40.38378997920425 29.509716672762515 0.6188392701940935 0.2062797567313647 0.2062797567313647 0.0 -0.0 0.7665764345255346 0.6421530736748979
101 24.815716301642137 39.85265797863776 9.143479328071052 0.6188392701940935 0.2062797567313647 0.2062797567313647 0.0 -0.0 0.7486465484609144 0.6629693397718779
102 11.112888253719781 16.691222446819285 38.7759933479627 0.6250587082577891 0.2083529027525962 0.2083529027525962 0.0 -0.0 0.764238184631255 0.644934102952793
103 37.87001469489431 14.88123810220441 43.97750575613959 0.6250587082577891 0.2083529027525962 0.2083529027525962 0.0 -0.0 0.7262700822056904 0.6874094614514261
104 23.031403721399645 32.74205978859172 13.15949718293198 0.6313406527131934 0.2104468842377314 0.2104468842377314 0.0 0.0 0.6864264585310771 0.7271992278794606
105 52.38072665089936 42.88273039320791 9.945131558162362 0.6313406527131934 0.2104468842377314 0.2104468842377314 0.0 -0.0 0.8498704758576332 0.5269916263713497
106 44.31089210532916 36.59004202484191 33.562092751159 0.6376857317599887 0.2125619105866628 0.2125619105866628 0.0 -0.0 0.793590538753224 0.6084521811953406
107 29.103247847076535 27.470163465961377 32.578324913695674 0.6376857317599887 0.2125619105866628 0.2125619105866628 0.0 -0.0 0.8299364941277125 0.5578578812878792
108 49.43495725411204 19.473463345580324 37.554422393796806 0.6440945799113665 0.21469819330378875 0.21469819330378875 0.0 -0.0 0.7596155095013813 0.650372414640225
109 45.79311666395988 14.89928933709287 59.837029393588885 0.6440945799113665 0.21469819330378875 0.21469819330378875 0.0 -0.0 0.746179639226726 0.6657446552571586
110 27.762679373579992 10.780377141872904 51.11223198008079 0.6505678380574831 0.21685594601916106 0.21685594601916106 0.0 -0.0 0.7434755474029917 0.6687631198068729
111 35.53278774899843 43.75740168244869 49.276724355069355 0.6505678380574831 0.21685594601916106 0.21685594601916106 0.0 -0.0 0.7635489887521677 0.6457499065238353
112 44.66906710525185 37.152022147244146 21.505158583551978 0.6571061535295462 0.2190353845098485 0.2190353845098485 0.0 -0.0 0.925703395166632 0.3782502137170186
113 46.06041863177566 40.67564904910323 17.224955524272062 0.6571061535295462 0.2190353845098485 0.2190353845098485 0.0 -0.0 0.7476030998596368 0.6641457709571461
114 21.050749121060292 0.1591726244899866 29.205481649741614 0.6637101801645525 0.22123672672151778 0.22123672672151778 0.0 -0.0 0.7095009508808979 0.7047044775642494
115 47.8130116929711 40.92459163957683 29.485933897215922 0.6637101801645525 0.22123672672151778 0.22123672672151778 0.0 0.0 0.692332939305712 0.7215782016887105
116 20.042442510825236 12.49895707008754 11.613926910177168 0.6703805783706701 0.22346019279022356 0.22346019279022356 0.0 0.0 0.4838188577050026 0.8751681626573412
117 23.090380666745535 3.3070610337398705 24.015264750105395 0.6703805783706701 0.22346019279022356 0.22346019279022356 0.0 0.0 0.4072390243389004 0.9133216175343166
118 25.517727268174255 50.44678828222991 14.623094179154506 0.6771180151932767 0.22570600506442534 0.22570600506442534 0.0 -0.0 0.9854258972554679 0.17010526452245991
119 21.732530664166823 0.3319764900852466 53.31514820200604 0.6771180151932767 0.22570600506442534 0.22570600506442534 0.0 0.0 0.693566054094668 0.720393037589587
120 17.79918143792532 24.386707261391017 6.403179196495898 0.6839231643816692 0.22797438812722282 0.22797438812722282 0.0 -0.0 0.8546373086497397 0.5192254526349123
121 10.468884935410436 21.58368914305862 6.240672414407895 0.6839231643816692 0.22797438812722282 0.22797438812722282 0.0 -0.0 0.738138054050796 0.6746496966293722
122 34.707482143412285 59.06127577304339 45.00756299405289 0.6907967064564374 0.2302655688188126 0.2302655688188126 0.0 0.0 0.30497028615780525 0.9523618663936657
123 5.998152380485937 26.21513869418078 18.156884864967182 0.6907967064564374 0.2302655688188126 0.2302655688188126 0.0 -0.0 0.8240326158671573 0.5665423620411186
124 1.5212583711512142 21.19826860716613 38.774781054235945 0.6977393287775174 0.2325797762591723 0.2325797762591723 0.0 -0.0 0.7351480847541838 0.6779065521753388
125 16.21657246871203 32.17314210377824 54.28133617384877 0.6977393287775174 0.2325797762591723 0.2325797762591723 0.0 0.0 0.6354145425399089 0.7721711980699606
126 14.221726226420595 49.06078830297572 28.442283802987575 0.7047517256129263 0.23491724187097537 0.23491724187097537 0.0 -0.0 0.9631928649301144 0.2688112812880415
127 49.96729180938627 40.70144183239861 36.44678390765857 0.7047517256129263 0.23491724187097537 0.23491724187097537 0.0 0.0 0.6645731125154195 0.7472232451694524
128 29.052177674871956 24.40801583374796 26.944295432976062 0.7118345982081916 0.23727819940273087 0.23727819940273087 0.0 -0.0 0.837305869343264 0.5467347447925007
129 29.46691921669281 9.118886147625943 1.760695954994104 0.7118345982081916 0.23727819940273087 0.23727819940273087 0.0 0.0 0.6718759690179156 0.7406636768846148
130 6.566802459604631 38.70853587193357 27.852860256522824 0.7189886548564752 0.2396628849521585 0.2396628849521585 0.0 -0.0 0.8172568989423515 0.5762735124323614
131 33.38298920112271 22.092025271079418 26.701587793641963 0.7189886548564752 0.2396628849521585 0.2396628849521585 0.0 0.0 0.5650588956672867 0.8250505708302167
132 59.90519407504067 39.02019136194131 32.575813486997546 0.7262146109694042 0.24207153698980166 0.24207153698980166 0.0 0.0 0.5632303093681869 0.8262999568008076
133 27.284074909008126 24.81662090184492 60.36572651448346 0.7262146109694042 0.24207153698980166 0.24207153698980166 0.0 0.0 0.7047758212396541 0.7094300823872436
134 41.829907112774094 13.53228983762922 38.968723099483 0.7335131891486105 0.24450439638287041 0.24450439638287041 0.0 -0.0 0.7457546235329385 0.6662207152882933
135 38.58288242350035 27.619395573747152 27.429931332320336 0.7335131891486105 0.24450439638287041 0.24450439638287041 0.0 0.0 0.5807371118896761 0.8140911539097067
136 40.371032744640075 36.76488849198111 28.019257757246258 0.7408851192579953 0.24696170641933163 0.24696170641933163 0.0 -0.0 0.7765636880913803 0.6300387593933514
137 45.952718281072976 6.073243300238327 9.936244566320482 0.7408851192579953 0.24696170641933163 0.24696170641933163 0.0 -0.0 0.9207785641385271 0.39008567754147583
138 17.09119787147487 3.7667195568026397 38.8660359989725 0.7483311384967118 0.2494437128322373 0.2494437128322373 0.0 0.0 0.5933031767685688 0.8049790931672228
139 56.11764544418713 21.363717485743614 58.062885781008525 0.7483311384967118 0.2494437128322373 0.2494437128322373 0.0 0.0 0.36293328461656904 0.9318151270061183
140 45.50764758913135 42.85081335812346 41.186908833215135 0.7558519914728893 0.2519506638242963 0.2519506638242963 0.0 0.0 0.5657838974393875 0.8245535649054563
141 36.24124806145345 13.520992541131838 30.299311934189255 0.7558519914728893 0.2519506638242963 0.2519506638242963 0.0 0.0 0.5898626798291705 0.8075035720941112
142 52.478607026963225 29.799558662483282 31.059166072249347 0.7634484302780935 0.25448281009269746 0.25448281009269746 0.0 0.0 0.494526605223718 0.8691624915548904
143 36.22049600027528 32.27264263476416 25.764824990569036 0.7634484302780935 0.25448281009269746 0.25448281009269746 0.0 0.0 0.6621201748514545 0.7493976741721844
144 58.51181643729227 39.88880310614058 28.946852852910027 0.7711212145625335 0.25704040485417773 0.25704040485417773 0.0 -0.0 0.8358120424685423 0.5490156916378287
145 10.857261470066181 13.75185293295404 37.20050348603544 0.7711212145625335 0.25704040485417773 0.25704040485417773 0.0 -0.0 0.7380766977143534 0.6747168208152773
146 45.484895181776 7.974649530789356 47.4034166406525 0.7788711116110331 0.25962370387034445 0.25962370387034445 0.0 0.0 0.5600689403365469 0.8284460043179022
147 40.073628296876294 32.24156264297469 45.82507550073738 0.7788711116110331 0.25962370387034445 0.25962370387034445 0.0 -0.0 0.8053653384335279 0.5927787712543771
148 17.046972404676485 28.067551396832307 53.712329785739165 0.786698896419755 0.26223296547325203 0.26223296547325203 0.0 -0.0 0.9475491048281723 0.31961022189430877
149 41.44381581906132 38.52716227477986 22.501619999144566 0.786698896419755 0.26223296547325203 0.26223296547325203 0.0 -0.0 0.8855269061838191 0.46458809543994295
150 18.89415881883706 25.051276058650487 17.232598583289725 0.7946053517737054 0.26486845059123487 0.26486845059123487 0.0 -0.0 0.8997163709941051 0.43647502994466686
151 28.07783671821517 9.023496744403701 44.63565551244394 0.7946053517737054 0.26486845059123487 0.26486845059123487 0.0 0.0 0.6949034215940625 0.7191030765174521
152 55.942458613808185 21.303993172900157 14.539979553492042 0.8025912683250036 0.26753042277500144 0.26753042277500144 0.0 0.0 0.6496096252583186 0.7602679361723385
153 49.087799397327046 60.603518331572765 42.606958796808435 0.8025912683250036 0.26753042277500144 0.26753042277500144 0.0 0.0 0.6980264017745981 0.7160720232110785
154 45.48965016948278 36.63686150160168 31.253244993308087 0.8106574446719644 0.2702191482239885 0.2702191482239885 0.0 -0.0 0.9126309719920443 0.4087844284716046
155 20.976229195693747 16.511299825847455 17.650075476802474 0.8106574446719644 0.2702191482239885 0.2702191482239885 0.0 0.0 0.34897032679986184 0.9371337743423815
156 44.94090243975572 16.37633923375986 9.280809407574933 0.8188046874389426 0.272934895812981 0.272934895812981 0.0 0.0 0.6995675014656925 0.7145665195718649
157 31.085402757619065 17.864160583086697 41.010672407681284 0.8188046874389426 0.272934895812981 0.272934895812981 0.0 0.0 0.63565327495599 0.7719746848425306
158 34.67527172995219 17.880217045949117 17.483002861710652 0.8270338113570034 0.27567793711900124 0.27567793711900124 0.0 -0.0 0.7426985308561326 0.6696259345814963
159 16.409610431114874 35.36437106655158 29.46919012922546 0.8270338113570034 0.27567793711900124 0.27567793711900124 0.0 0.0 0.4891044501540252 0.8722252213961303
160 48.15626336261379 21.90234395765688 10.084377355401939 0.8353456393453976 0.2784485464484659 0.2784485464484659 0.0 0.0 0.6466947184788655 0.7627489371290798
161 25.833653008370632 20.03052790810277 44.90529911115252 0.8353456393453976 0.2784485464484659 0.2784485464484659 0.0 0.0 0.6377575578887067 0.7702371695496348
162 2.343659329129435 41.01497598677366 2.1511810437540166 0.8437410025938493 0.2812470008646167 0.2812470008646167 0.0 0.0 0.6701572236966805 0.7422191694689361
163 42.56992965272026 28.533016243113188 33.005952772946955 0.8437410025938493 0.2812470008646167 0.2812470008646167 0.0 -0.0 0.7797338016261434 0.6261111711203069
164 33.35302848711671 26.50186207738235 24.864097044612457 0.8522207406456822 0.2840735802152273 0.2840735802152273 0.0 0.0 0.6966086930688543 0.7174512727293072
165 48.40332115437848 59.92557719068323 15.526216223270959 0.8522207406456822 0.2840735802152273 0.2840735802152273 0.0 -0.0 0.8994069955971553 0.43711217813153935
84_T 49.450011800663056 -0.14009451310784726 11.798600441075275 0.5712606461021449 0.19042021536738152 0.19042021536738152 0.0 -0.0 0.8521868438699086 0.5232375972109076
114_B 21.050749121060292 61.05917262448998 29.205481649741614 0.6637101801645525 0.22123672672151778 0.22123672672151778 0.0 -0.0 0.7095009508808979 0.7047044775642494
119_B 21.732530664166823 61.231976490085245 53.31514820200604 0.6771180151932767 0.22570600506442534 0.22570600506442534 0.0 0.0 0.693566054094668 0.720393037589587
153_T 49.087799397327046 -0.29648166842723356 42.606958796808435 0.8025912683250036 0.26753042277500144 0.26753042277500144 0.0 0.0 0.6980264017745981 0.7160720232110785
