ITEM: TIMESTEP
428
ITEM: NUMBER OF ATOMS
230
ITEM: BOX BOUNDS ff ff ff
0 60.9
60.9 0
60.9 0
ITEM: ATOMS id x y z AsphericalShapeX AsphericalShapeY AsphericalShapeZ OrientationX OrientationY OrientationZ OrientationW
1 46.84567710951646 45.54361392893712 22.68174126186833 3.028220495492851 1.0094068318309553 1.0094068318309553 0.0 -0.0 0.7863642711635499 0.6177630881150306
2 12.996746664572381 14.566390406403237 23.816983021470453 3.0586546174402574 1.0195515391467365 1.0195515391467365 0.0 -0.0 0.8896314041555925 0.4566792799549252
3 10.299746543071663 22.88083682039031 58.533856433826664 3.0893946073982526 1.0297982024660899 1.0297982024660899 0.0 0.0 0.631512325711268 0.7753658378305981
4 22.521110811709743 49.03128251659304 45.488780862269664 3.120443539391577 1.0401478464638498 1.0401478464638498 0.0 0.0 0.5765741652112841 0.8170448164029381
5 43.14254648033721 5.968817325849804 11.302827539505381 3.151804518339174 1.050601506113048 1.050601506113048 0.0 -0.0 0.8873914294477543 0.4610167577677315
6 30.036097090966514 60.069473347509955 19.831467113384633 3.1834806803651032 1.0611602267883737 1.0611602267883737 0.0 0.0 0.643710445538684 0.7652691437033046
7 33.583825662245744 60.31937134052661 30.148338434339845 3.2154751931119914 1.0718250643706677 1.0718250643706677 0.0 -0.0 0.7603958793842515 0.6494598575858641
8 44.38303853781476 33.282260405539105 17.630256012575416 3.24779125605775 1.0825970853525881 1.0825970853525881 0.0 -0.0 0.7854601334426244 0.6189122545016335
9 48.34202661987838 59.704823689732734 50.95479167961248 3.2804321008356543 1.0934773669452196 1.0934773669452196 0.0 -0.0 0.7176002965020949 0.6964551776389529
10 58.02805813860038 5.5754971795683845 11.812734017075227 3.313400991557317 1.1044669971857766 1.1044669971857766 0.0 0.0 0.38534345666417513 0.9227732226317065
11 30.884903902565757 30.579480132940027 1.0625509067360954 3.3467012251393102 1.1155670750464342 1.1155670750464342 0.0 0.0 0.49983922045674145 0.866118209999765
12 57.81834840147621 9.231731515420199 25.620041150183265 3.3803361316327156 1.1267787105442446 1.1267787105442446 0.0 0.0 0.2746680171135514 0.9615391205639581
13 6.194930642229485 55.9263711406392 16.74421683743548 3.4143090745563343 1.1381030248520982 1.1381030248520982 0.0 -0.0 0.7886508549344257 0.614841303924191
14 15.041983596936713 36.2916262164942 27.87084917079516 3.448623451232597 1.149541150410848 1.149541150410848 0.0 -0.0 0.7750680292508737 0.6318777967559605
15 26.35782569612286 43.59161021572523 25.20817511999324 3.4832826931278245 1.161094231042618 1.161094231042618 0.0 0.0 0.6340811782098568 0.7732664866913604
16 15.204274074088861 32.21429178181199 54.05175096389705 3.5182902661952093 1.172763422065056 1.172763422065056 0.0 -0.0 0.7629176367612683 0.6464956918020424
17 27.196025395703607 17.852098958199768 37.447070621255804 3.553649671221048 1.1845498904070055 1.1845498904070055 0.0 0.0 0.6579222258448839 0.7530858813836
18 39.74632511699801 34.120999854589485 15.549270334169783 3.5893644441754256 1.1964548147251313 1.1964548147251313 0.0 0.0 0.506211649243881 0.8624092799650234
19 26.41473142870828 11.35648377779422 41.870237821729184 3.6254381565653726 1.2084793855217764 1.2084793855217764 0.0 0.0 0.6434542777811493 0.7654845474633303
20 31.23492945297929 60.061047510413445 36.38387981947849 3.661874415792163 1.2206248052640587 1.2206248052640587 0.0 -0.0 0.7861857262579329 0.6179902942832407
21 44.16246774529032 23.17241949881994 46.71112875527393 3.6986768655121085 1.2328922885040172 1.2328922885040172 0.0 0.0 0.6069811502172251 0.7947162281474907
22 10.777976755971787 56.92542970835028 36.0712950786487 3.7358491860008 1.2452830620002688 1.2452830620002688 0.0 -0.0 0.8910647246123514 0.45387625687131333
23 41.44773784719433 51.37964027294492 47.24641535981943 3.7733950945214096 1.257798364840469 1.257798364840469 0.0 -0.0 0.7582829367961579 0.651925599868416
24 31.17828305009581 1.2273793608913741 50.325195536557274 3.8113183456959256 1.2704394485653063 1.2704394485653063 0.0 0.0 0.5255054740936084 0.8507902189715464
25 18.28766847286478 57.19895097338708 53.633300862035654 3.84962273188115 1.2832075772937013 1.2832075772937013 0.0 0.0 0.6637035342538496 0.7479957343587923
26 57.556049431518765 2.0451384611121246 29.17131743422862 3.8883120835474934 1.29610402784918 1.29610402784918 0.0 0.0 0.5361151400853296 0.8441448670526212
27 0.10933709761960365 14.257396720532961 22.269006986310085 3.9273902696625362 1.3091300898875242 1.3091300898875242 0.0 -0.0 0.7297620279401082 0.6837012378054764
28 26.196030404834037 33.30223552735066 36.64847450257993 3.966861198077385 1.322287066025791 1.322287066025791 0.0 -0.0 0.9828164757017253 0.18458541407500267
29 45.13205314653316 28.12804637545566 30.433206191610083 4.006728815917776 1.3355762719726076 1.3355762719726076 0.0 -0.0 0.8740853421614372 0.4857723897243679
30 17.671440489607125 4.044598930982668 30.685674734874198 4.0469971099786965 1.348999036659581 1.348999036659581 0.0 -0.0 0.8433777540022546 0.5373210995802349
31 50.09026180090161 49.98136473960268 42.65395851351219 4.087670107123132 1.362556702374394 1.362556702374394 0.0 0.0 0.6952778540174372 0.7187410560924617
32 59.07826210027442 30.016317180947677 33.66388860729412 4.128751874684668 1.3762506248949038 1.3762506248949038 0.0 0.0 0.6353234605105568 0.7722461398575527
33 28.21447236907369 26.610381757639253 27.034287627209416 4.170246520874333 1.3900821736247715 1.3900821736247715 0.0 0.0 0.6411270229476993 0.7674347792784871
34 18.516115172767403 12.502086344855583 28.05001697830142 4.212158195191276 1.4040527317304434 1.4040527317304434 0.0 -0.0 0.7453722743584635 0.6666484625480594
35 25.4942902804715 48.22838483658718 42.4492279773916 4.254491088837932 1.418163696279318 1.418163696279318 0.0 -0.0 0.7109313362059317 0.7032614273514853
36 35.30144329527601 7.341136208347708 1.736997644823167 4.297249435138812 1.4324164783796223 1.4324164783796223 0.0 -0.0 0.739632735620696 0.6730107104632479
37 25.077790819542408 57.77721887308498 22.20350318833688 4.340437509964337 1.4468125033214605 1.4468125033214605 0.0 0.0 0.5163603530767541 0.8563714064414165
38 19.41935200443398 0.31888901363749156 20.777274670327976 4.384059632157851 1.4613532107192746 1.4613532107192746 0.0 0.0 0.5145463711011363 0.8574625542766586
39 14.726930927514093 23.312869114801718 26.114538351177107 4.428120163968001 1.4760400546560004 1.4760400546560004 0.0 0.0 0.5880831456971182 0.8088004783300898
40 59.03929770899594 28.07085124007506 14.166544466711127 4.472623511484697 1.4908745038282154 1.4908745038282154 0.0 -0.0 0.8608342640850161 0.5088854191045453
41 15.318567400301198 12.443330881236992 33.967641833142636 4.517574125079659 1.505858041693213 1.505858041693213 0.0 0.0 0.5813114541301716 0.8136811373609846
42 16.509018436477312 7.441010330819199 41.66545364083391 4.562976499851806 1.5209921666172763 1.5209921666172763 0.0 0.0 0.6858728758951139 0.7277213739552836
43 6.9688830799744625 4.15360291389317 32.47108061108361 4.6088351760764565 1.5362783920254877 1.5362783920254877 0.0 -0.0 0.8971229945165649 0.4417808650333688
44 43.165605836914835 17.150741991038096 32.288620775412774 4.655154739659449 1.5517182465531336 1.5517182465531336 0.0 -0.0 0.7662793896249596 0.6425075073771507
45 40.988403482020246 44.909793858782294 37.982820860431225 4.701939822595666 1.5673132741985447 1.5673132741985447 0.0 -0.0 0.8021859139948743 0.5970743332184094
46 15.632049135808835 33.26062322729968 16.458411485679896 4.74919510343243 1.583065034477487 1.583065034477487 0.0 0.0 0.6689296931602822 0.7433256793683982
47 51.377904790494746 21.688934517799332 15.448851250686909 4.796925307737245 1.598975102579082 1.598975102579082 0.0 -0.0 0.8121614142020023 0.5834328044268712
48 0.2886955007060376 1.7185461662439447 16.929496838797764 4.845135208570306 1.6150450695234364 1.6150450695234364 0.0 0.0 0.43861391052531945 0.8986756019241242
49 22.459643808495727 13.909570180494594 5.421395570191148 4.893829626961791 1.631276542320606 1.631276542320606 0.0 -0.0 0.7611420715427216 0.6485851886434459
50 33.51489680283429 10.413376142929895 54.95849971099285 4.943013432394212 1.6476711441314011 1.6476711441314011 0.0 0.0 0.5689873473401131 0.8223462765568174
51 56.45228016283025 23.45556511678726 40.10673196538317 4.992691543289105 1.664230514429682 1.664230514429682 0.0 -0.0 0.9816329176571261 0.1907794930592849
52 30.574544726327375 35.23503094047698 28.022576535514858 5.042868927498862 1.6809563091662685 1.6809563091662685 0.0 -0.0 0.8312938914163103 0.5558331279205367
53 10.72142862530798 1.5088433357033795 5.632370023771699 5.093550602803719 1.6978502009345982 1.6978502009345982 0.0 0.0 0.4937832216878833 0.8695850332081013
54 30.549144883606736 60.36749832704055 42.35162894786796 5.144741637413565 1.7149138791378522 1.7149138791378522 0.0 -0.0 0.7425013715714329 0.6698445440656666
55 20.923523042882156 42.09677585354034 9.977231736205773 5.144741637413565 1.7149138791378522 1.7149138791378522 0.0 -0.0 0.899222239431846 0.4374921303419936
56 36.8678387107793 13.369170287171325 21.283502594611893 5.196447150474466 1.7321490501581487 1.7321490501581487 0.0 0.0 0.591041689671776 0.8066410112744902
57 53.15084820940429 58.46737140656842 53.24648641552574 5.196447150474466 1.7321490501581487 1.7321490501581487 0.0 0.0 0.6906372933410847 0.7232013060320761
58 29.16359964695174 43.73953219624525 30.27715934833327 5.248672312580771 1.74955743752692 1.74955743752692 0.0 -0.0 0.9778925487455288 0.20910801779935065
59 28.855857340995044 49.19339932134845 27.146894373707653 5.248672312580771 1.74955743752692 1.74955743752692 0.0 -0.0 0.8334397726994561 0.5526103014626843
60 42.98514872207125 26.42073284667663 54.84954396437703 5.3014223462923225 1.7671407820974252 1.7671407820974252 0.0 -0.0 0.8251393648538317 0.5649292243888745
61 8.0469863512807 45.324408808959355 37.32373499152162 5.3014223462923225 1.7671407820974252 1.7671407820974252 0.0 -0.0 0.8342848482439009 0.5513336485202505
62 19.76539052104488 58.168131355432415 41.824610646396856 5.354702526656269 1.7849008422187427 1.7849008422187427 0.0 0.0 0.6993489688984815 0.7147803996337831
63 37.20808868584703 59.59858327850418 50.94764627116974 5.354702526656269 1.7849008422187427 1.7849008422187427 0.0 0.0 0.6638694557235675 0.747848477806363
64 41.368658327046134 32.183880052198035 41.2501965615275 5.408518181735222 1.8028393939117324 1.8028393939117324 0.0 0.0 0.5469534661185369 0.8371630103515794
65 20.098446907674074 14.612479704187551 0.5166049288698621 5.408518181735222 1.8028393939117324 1.8028393939117324 0.0 0.0 0.534266604389083 0.8453160328744268
66 29.822960246121383 12.021305343568976 30.643965189234894 5.462874693139337 1.820958231046462 1.820958231046462 0.0 0.0 0.49259387534365895 0.8702593142126752
67 60.44135428536128 28.243495273848612 10.322163305155193 5.462874693139337 1.820958231046462 1.820958231046462 0.0 -0.0 0.7991221049958454 0.6011687461162707
68 38.76654426154275 33.88573625794748 27.789198892571495 5.5177774965652935 1.839259165521775 1.839259165521775 0.0 -0.0 0.8113628171424923 0.5845428803420658
69 39.358227758490244 12.305349506552956 58.177411348296914 5.5177774965652935 1.839259165521775 1.839259165521775 0.0 0.0 0.69974083585519 0.7143967823532522
70 5.397697650914926 50.58332489186292 23.942678980994316 5.573232082339057 1.8577440274463342 1.8577440274463342 0.0 -0.0 0.9226100212719841 0.3857340387475665
71 27.118958846386896 55.853636156225285 26.819862240921932 5.573232082339057 1.8577440274463342 1.8577440274463342 0.0 -0.0 0.8908476943010929 0.4543020862360491
72 12.335176285120976 52.216400107755135 9.165294218191045 5.629243995965382 1.8764146653218041 1.8764146653218041 0.0 -0.0 0.9180976465577227 0.39635427509384946
73 41.0357120277527 41.443819924528185 31.498530830280348 5.629243995965382 1.8764146653218041 1.8764146653218041 0.0 0.0 0.6852526383261238 0.7283054453092375
74 44.3371773397049 33.877243488969484 10.290932121363284 5.685818838682411 1.8952729462274738 1.8952729462274738 0.0 0.0 0.6622208999947843 0.7493086677799063
75 2.8490670715610875 50.40982177655617 27.463566029833466 5.685818838682411 1.8952729462274738 1.8952729462274738 0.0 0.0 0.6669694181073614 0.7450850926636016
76 47.9018954209058 10.005701982097133 32.52769127833437 5.742962268021423 1.914320756007171 1.914320756007171 0.0 0.0 0.4849872773235938 0.8745212066235144
77 18.206429299412168 47.77722808721429 22.181292147716984 5.742962268021423 1.914320756007171 1.914320756007171 0.0 -0.0 0.724549744492829 0.6892225096116464
78 4.846333416851132 14.576618247336853 8.59914007995076 5.800679998373134 1.9335599994577113 1.9335599994577113 0.0 0.0 0.646327957303847 0.7630597431442944
79 3.5479258862366105 20.673586152721118 34.8771259668993 5.800679998373134 1.9335599994577113 1.9335599994577113 0.0 0.0 0.4210348644808628 0.9070444547493698
80 53.49075672180662 10.592821628622874 19.602528267025452 5.858977801558632 1.9529926005195115 1.9529926005195115 0.0 0.0 0.5786941501693628 0.8155446527074768
81 0.10608104905346924 41.70513253306632 29.730506848599518 5.858977801558632 1.9529926005195115 1.9529926005195115 0.0 0.0 0.683142879342022 0.730284743373632
82 7.976713677795472 8.87408016753194 60.60179479259729 5.917861507406699 1.9726205024688765 1.9726205024688765 0.0 0.0 0.3480344086077516 0.937481760049257
83 23.904882811507697 50.46882583551285 59.89862747589005 5.917861507406699 1.9726205024688765 1.9726205024688765 0.0 -0.0 0.8280938516825816 0.560589486884571
84 30.091779632956843 1.232081918014059 9.343927926400134 5.977337004337039 1.992445668112368 1.992445668112368 0.0 -0.0 0.8521868438699086 0.5232375972109076
85 25.194883495832524 36.3240847440241 33.12494769486494 5.977337004337039 1.992445668112368 1.992445668112368 0.0 0.0 0.2683204071818837 0.9633297250109892
86 8.934762087464295 59.511656199790224 58.59858621645181 6.037410239949005 2.012470079983023 2.012470079983023 0.0 0.0 0.5717525694490604 0.8204261083902665
87 10.587610269405808 57.9223173564919 45.74546616149008 6.037410239949005 2.012470079983023 2.012470079983023 0.0 -0.0 0.7407334016199733 0.6717990977401677
88 25.62243913518839 45.87794572566459 53.92362147401738 6.098087221616228 2.0326957405387187 2.0326957405387187 0.0 0.0 0.6524446383875427 0.7578363898885753
89 25.53382321508388 26.814722564612897 44.97103082019959 6.098087221616228 2.0326957405387187 2.0326957405387187 0.0 0.0 0.3815125934194192 0.9243636411404275
90 18.067734050317785 9.047480557447397 46.679792780075545 6.159374017087309 2.0531246723624057 2.0531246723624057 0.0 -0.0 0.7664413141092511 0.642314340511314
91 42.07099913722687 1.3701601678602016 27.900798543144496 6.159374017087309 2.0531246723624057 2.0531246723624057 0.0 -0.0 0.7164030651197486 0.6976866404676452
92 44.86771583155891 20.529482310764706 39.83302010064389 6.2212767550928465 2.07375891836428 2.07375891836428 0.0 0.0 0.3159382626609752 0.9487797500931208
93 19.13945941447881 44.61014277931008 42.32719362354931 6.2212767550928465 2.07375891836428 2.07375891836428 0.0 -0.0 0.807675111463051 0.5896277760783901
94 58.369555049837835 12.370349454693205 45.076092672479355 6.283801625958359 2.0946005419861495 2.0946005419861495 0.0 0.0 0.5856043209472178 0.8105970511221638
95 44.28770822647314 19.846372733098057 54.96560244664512 6.283801625958359 2.0946005419861495 2.0946005419861495 0.0 -0.0 0.8283891439806925 0.5601530381377355
96 36.03619583836905 9.448798253418303 39.27541295808358 6.346954882223005 2.115651627407701 2.115651627407701 0.0 0.0 0.6380161188650698 0.7700230074928626
97 31.493501960482618 17.09956174625463 29.295685992639683 6.346954882223005 2.115651627407701 2.115651627407701 0.0 0.0 0.5652655734899162 0.8249089837231233
98 21.26180229252918 21.390016438991776 40.80114817349662 6.41074283926509 2.136914279755022 2.136914279755022 0.0 -0.0 0.9884337224668884 0.15165347437579585
99 51.771460882675854 32.84100850512337 9.517343411023568 6.41074283926509 2.136914279755022 2.136914279755022 0.0 0.0 0.644584962479319 0.7645326848117973
100 38.238578754449385 28.760932608256844 56.568916248504735 6.475171875933296 2.1583906253111085 2.1583906253111085 0.0 -0.0 0.7665764345255346 0.6421530736748979
101 17.542047765719808 38.99916964548744 58.56581658128171 6.475171875933296 2.1583906253111085 2.1583906253111085 0.0 -0.0 0.7486465484609144 0.6629693397718779
102 37.68020841730273 28.07400292171515 11.539465962466698 6.5402484351851005 2.1800828117283846 2.1800828117283846 0.0 -0.0 0.764238184631255 0.644934102952793
103 27.075067745017403 29.64534011769813 9.879583863836976 6.5402484351851005 2.1800828117283846 2.1800828117283846 0.0 -0.0 0.7262700822056904 0.6874094614514261
104 41.3800151116949 3.9192958872036145 43.264031621099605 6.605979024730797 2.2019930082435626 2.2019930082435626 0.0 0.0 0.6864264585310771 0.7271992278794606
105 21.38772239263709 54.57137884823603 5.017897291428374 6.605979024730797 2.2019930082435626 2.2019930082435626 0.0 -0.0 0.8498704758576332 0.5269916263713497
106 19.570028702677305 29.954527840431368 55.70329681954594 6.672370217683808 2.2241234058946033 2.2241234058946033 0.0 -0.0 0.793590538753224 0.6084521811953406
107 39.853936230457315 8.724978851257791 18.121904685430387 6.672370217683808 2.2241234058946033 2.2241234058946033 0.0 -0.0 0.8299364941277125 0.5578578812878792
108 55.56566191541477 0.9179589975000487 2.129952987787674 6.739428653218984 2.2464762177396267 2.2464762177396267 0.0 -0.0 0.7596155095013813 0.650372414640225
109 3.484580305015463 45.39713935726911 59.652549272640464 6.739428653218984 2.2464762177396267 2.2464762177396267 0.0 -0.0 0.746179639226726 0.6657446552571586
110 36.52003213642221 10.747886785777606 48.28905133100535 6.8071610372356455 2.269053679078513 2.269053679078513 0.0 -0.0 0.7434755474029917 0.6687631198068729
111 32.045075266946256 51.254301461658606 19.29354630416372 6.8071610372356455 2.269053679078513 2.269053679078513 0.0 -0.0 0.7635489887521677 0.6457499065238353
112 47.00230153909916 53.45290992111701 18.272658268163926 6.875574143028623 2.2918580476762433 2.2918580476762433 0.0 -0.0 0.925703395166632 0.3782502137170186
113 18.714205720185785 60.41253870169454 10.182098624788091 6.875574143028623 2.2918580476762433 2.2918580476762433 0.0 -0.0 0.7476030998596368 0.6641457709571461
114 54.82729736807362 16.856527491990484 31.745496566323627 6.944674811965668 2.3148916039885568 2.3148916039885568 0.0 -0.0 0.7095009508808979 0.7047044775642494
115 25.465675163036504 27.54257717375132 53.107298040414896 6.944674811965668 2.3148916039885568 2.3148916039885568 0.0 0.0 0.692332939305712 0.7215782016887105
116 15.394115505739379 21.307463464103478 48.29295653352856 7.014469954171214 2.3381566513903778 2.3381566513903778 0.0 0.0 0.4838188577050026 0.8751681626573412
117 49.50231070992037 39.47061066165743 31.19242385784623 7.014469954171214 2.3381566513903778 2.3381566513903778 0.0 0.0 0.4072390243389004 0.9133216175343166
118 41.926556106683464 21.380005726679798 0.18091465231309692 7.08496654921742 2.361655516405808 2.361655516405808 0.0 -0.0 0.9854258972554679 0.17010526452245991
119 39.49757871266018 37.39705196464649 3.003085742419918 7.08496654921742 2.361655516405808 2.361655516405808 0.0 0.0 0.693566054094668 0.720393037589587
120 36.274677566108664 28.194982378638095 33.34724004667252 7.156171646822792 2.3853905489409324 2.3853905489409324 0.0 -0.0 0.8546373086497397 0.5192254526349123
121 58.07504352740625 48.278167682824595 52.399327107829436 7.156171646822792 2.3853905489409324 2.3853905489409324 0.0 -0.0 0.738138054050796 0.6746496966293722
122 50.20714383420866 26.816162226444558 58.3004324706735 7.2280923675563375 2.409364122518806 2.409364122518806 0.0 0.0 0.30497028615780525 0.9523618663936657
123 40.52613433364361 32.301361713840855 49.986393932256604 7.2280923675563375 2.409364122518806 2.409364122518806 0.0 -0.0 0.8240326158671573 0.5665423620411186
124 55.216063592874214 40.53974567667003 58.43670054806285 7.30073590355019 2.4335786345167225 2.4335786345167225 0.0 -0.0 0.7351480847541838 0.6779065521753388
125 45.71864798401139 45.68560748630041 49.45428498961848 7.30073590355019 2.4335786345167225 2.4335786345167225 0.0 0.0 0.6354145425399089 0.7721711980699606
126 28.489838476269487 6.149292014735983 42.105401904355965 7.374109519218245 2.4580365064060765 2.4580365064060765 0.0 -0.0 0.9631928649301144 0.2688112812880415
127 0.09887702077036145 36.69148379333542 41.0937406154098 7.374109519218245 2.4580365064060765 2.4580365064060765 0.0 0.0 0.6645731125154195 0.7472232451694524
128 10.034452160339354 48.555039463748486 53.00311857069585 7.4482205519832405 2.482740183994412 2.482740183994412 0.0 -0.0 0.837305869343264 0.5467347447925007
129 46.73003909964913 58.993865652051234 6.265508125450656 7.4482205519832405 2.482740183994412 2.482740183994412 0.0 0.0 0.6718759690179156 0.7406636768846148
130 34.07866770808328 2.9917411564586605 13.797993442309442 7.5230764130105205 2.507692137670144 2.507692137670144 0.0 -0.0 0.8172568989423515 0.5762735124323614
131 11.637130010495982 19.488297296452146 45.606513896749625 7.5230764130105205 2.507692137670144 2.507692137670144 0.0 0.0 0.5650588956672867 0.8250505708302167
132 27.08240050501458 5.064677115583792 55.026605943445375 7.598684587948246 2.5328948626493886 2.5328948626493886 0.0 0.0 0.5632303093681869 0.8262999568008076
133 24.181463060625923 52.81391586692164 37.21739165781993 7.598684587948246 2.5328948626493886 2.5328948626493886 0.0 0.0 0.7047758212396541 0.7094300823872436
134 58.43827204121397 45.07888406183516 45.894418212687164 7.675052637676901 2.5583508792256238 2.5583508792256238 0.0 -0.0 0.7457546235329385 0.6662207152882933
135 45.76724206924752 52.984907776717776 59.16401497175142 7.675052637676901 2.5583508792256238 2.5583508792256238 0.0 0.0 0.5807371118896761 0.8140911539097067
136 17.993248036769337 0.14308090937925755 0.5789238542626796 7.752188199065395 2.584062733021792 2.584062733021792 0.0 -0.0 0.7765636880913803 0.6300387593933514
137 11.168209251586724 39.79595764878814 30.06902049463582 7.752188199065395 2.584062733021792 2.584062733021792 0.0 -0.0 0.9207785641385271 0.39008567754147583
138 47.81049659875844 25.375437693837487 22.54632527665491 7.83009898573391 2.610032995244607 2.610032995244607 0.0 0.0 0.5933031767685688 0.8049790931672228
139 56.67052939105529 23.07873277005475 4.8923964831767 7.83009898573391 2.610032995244607 2.610032995244607 0.0 0.0 0.36293328461656904 0.9318151270061183
140 3.9846605296337887 16.769307291655874 39.11126771240412 7.9087927888261556 2.636264262942045 2.636264262942045 0.0 0.0 0.5657838974393875 0.8245535649054563
141 11.811542433380058 8.252418385856357 51.001957890455664 7.9087927888261556 2.636264262942045 2.636264262942045 0.0 0.0 0.5898626798291705 0.8075035720941112
142 8.589639239009953 34.33378543321481 5.884010289678035 7.988277477787794 2.6627591592626314 2.6627591592626314 0.0 0.0 0.494526605223718 0.8691624915548904
143 24.271624924865915 1.2594318629483148 0.8189388560100416 7.988277477787794 2.6627591592626314 2.6627591592626314 0.0 0.0 0.6621201748514545 0.7493976741721844
144 11.376216396829877 39.67108394751097 49.217922167392935 8.068561001154345 2.6895203337181233 2.6895203337181233 0.0 -0.0 0.8358120424685423 0.5490156916378287
145 13.63455529726896 27.50385807908626 21.974597293542224 8.068561001154345 2.6895203337181233 2.6895203337181233 0.0 -0.0 0.7380766977143534 0.6747168208152773
146 24.724898317459036 51.815169893377465 49.07196560361269 8.149651387344736 2.716550462448248 2.716550462448248 0.0 0.0 0.5600689403365469 0.8284460043179022
147 38.0898704735565 18.598300127114168 34.266157626357455 8.149651387344736 2.716550462448248 2.716550462448248 0.0 -0.0 0.8053653384335279 0.5927787712543771
148 9.048831866860628 29.4889744404807 57.77399330208024 8.231556745465278 2.7438522484884267 2.7438522484884267 0.0 -0.0 0.9475491048281723 0.31961022189430877
149 49.75354717041373 5.241404893442769 26.264040814415186 8.231556745465278 2.7438522484884267 2.7438522484884267 0.0 -0.0 0.8855269061838191 0.46458809543994295
150 27.541602664659806 6.183029634477132 19.782333080588426 8.314285266120033 2.771428422040013 2.771428422040013 0.0 -0.0 0.8997163709941051 0.43647502994466686
151 33.202093880464254 49.16899575682763 37.810651227156 8.314285266120033 2.771428422040013 2.771428422040013 0.0 0.0 0.6949034215940625 0.7191030765174521
152 1.033396645227287 1.3081980346242812 1.8749966303925385 8.397845222230002 2.799281740743312 2.799281740743312 0.0 0.0 0.6496096252583186 0.7602679361723385
153 32.96242447970171 15.33370587358738 6.19042910125 8.397845222230002 2.799281740743312 2.799281740743312 0.0 0.0 0.6980264017745981 0.7160720232110785
154 51.05284712877287 10.150139152489155 3.951211172971747 8.482244969860309 2.827414989953427 2.827414989953427 0.0 -0.0 0.9126309719920443 0.4087844284716046
155 18.610652021394415 36.132034700100085 6.5828495672203315 8.482244969860309 2.827414989953427 2.827414989953427 0.0 0.0 0.34897032679986184 0.9371337743423815
156 35.435296665788044 41.710959531097934 47.35821352339049 8.567492949056238 2.8558309830187336 2.8558309830187336 0.0 0.0 0.6995675014656925 0.7145665195718649
157 20.974584847236688 23.141115178792926 47.429280150926324 8.567492949056238 2.8558309830187336 2.8558309830187336 0.0 0.0 0.63565327495599 0.7719746848425306
158 52.79768921945898 55.52341641940572 48.517906312358704 8.653597684686712 2.88453256156224 2.88453256156224 0.0 -0.0 0.7426985308561326 0.6696259345814963
159 19.710918597826918 13.009636158373647 10.451327680569959 8.653597684686712 2.88453256156224 2.88453256156224 0.0 0.0 0.4891044501540252 0.8722252213961303
160 52.48659929940514 46.31001281984044 14.448271057368874 8.740567787296968 2.9135225957656847 2.9135225957656847 0.0 0.0 0.6466947184788655 0.7627489371290798
161 31.67309491501321 14.772685111004812 35.9661724847244 8.740567787296968 2.9135225957656847 2.9135225957656847 0.0 0.0 0.6377575578887067 0.7702371695496348
162 9.008988317555165 8.560126503296004 15.619109653244818 8.828411953969814 2.9428039846565763 2.9428039846565763 0.0 0.0 0.6701572236966805 0.7422191694689361
163 41.77386615480622 4.34889472103909 36.830844203033315 8.828411953969814 2.9428039846565763 2.9428039846565763 0.0 -0.0 0.7797338016261434 0.6261111711203069
164 45.652937670452104 51.476468520936656 38.25148440008114 8.917138969195037 2.972379656398345 2.972379656398345 0.0 0.0 0.6966086930688543 0.7174512727293072
165 58.28415656248578 36.14185868290952 22.85835529673434 8.917138969195037 2.972379656398345 2.972379656398345 0.0 -0.0 0.8994069955971553 0.43711217813153935
6_T 30.036097090966514 -0.8305266524900432 19.831467113384633 3.1834806803651032 1.0611602267883737 1.0611602267883737 0.0 0.0 0.643710445538684 0.7652691437033046
7_T 33.583825662245744 -0.5806286594733905 30.148338434339845 3.2154751931119914 1.0718250643706677 1.0718250643706677 0.0 -0.0 0.7603958793842515 0.6494598575858641
9_T 48.34202661987838 -1.1951763102672643 50.95479167961248 3.2804321008356543 1.0934773669452196 1.0934773669452196 0.0 -0.0 0.7176002965020949 0.6964551776389529
11_Ba 30.884903902565757 30.579480132940027 61.96255090673609 3.3467012251393102 1.1155670750464342 1.1155670750464342 0.0 0.0 0.49983922045674145 0.866118209999765
20_T 31.23492945297929 -0.8389524895865534 36.38387981947849 3.661874415792163 1.2206248052640587 1.2206248052640587 0.0 -0.0 0.7861857262579329 0.6179902942832407
24_B 31.17828305009581 62.127379360891375 50.325195536557274 3.8113183456959256 1.2704394485653063 1.2704394485653063 0.0 0.0 0.5255054740936084 0.8507902189715464
25_T 18.28766847286478 -3.701049026612921 53.633300862035654 3.84962273188115 1.2832075772937013 1.2832075772937013 0.0 0.0 0.6637035342538496 0.7479957343587923
26_B 57.556049431518765 62.94513846111212 29.17131743422862 3.8883120835474934 1.29610402784918 1.29610402784918 0.0 0.0 0.5361151400853296 0.8441448670526212
27_R 61.0093370976196 14.257396720532961 22.269006986310085 3.9273902696625362 1.3091300898875242 1.3091300898875242 0.0 -0.0 0.7297620279401082 0.6837012378054764
37_T 25.077790819542408 -3.122781126915015 22.20350318833688 4.340437509964337 1.4468125033214605 1.4468125033214605 0.0 0.0 0.5163603530767541 0.8563714064414165
38_B 19.41935200443398 61.218889013637494 20.777274670327976 4.384059632157851 1.4613532107192746 1.4613532107192746 0.0 0.0 0.5145463711011363 0.8574625542766586
40_L -1.8607022910040598 28.07085124007506 14.166544466711127 4.472623511484697 1.4908745038282154 1.4908745038282154 0.0 -0.0 0.8608342640850161 0.5088854191045453
48_RT 61.18869550070604 1.7185461662439447 16.929496838797764 4.845135208570306 1.6150450695234364 1.6150450695234364 0.0 0.0 0.43861391052531945 0.8986756019241242
48_LB 0.2886955007060376 62.618546166243945 16.929496838797764 4.845135208570306 1.6150450695234364 1.6150450695234364 0.0 0.0 0.43861391052531945 0.8986756019241242
48_RB 61.18869550070604 62.618546166243945 16.929496838797764 4.845135208570306 1.6150450695234364 1.6150450695234364 0.0 0.0 0.43861391052531945 0.8986756019241242
51_L -4.44771983716975 23.45556511678726 40.10673196538317 4.992691543289105 1.664230514429682 1.664230514429682 0.0 -0.0 0.9816329176571261 0.1907794930592849
53_B 10.72142862530798 62.40884333570338 5.632370023771699 5.093550602803719 1.6978502009345982 1.6978502009345982 0.0 0.0 0.4937832216878833 0.8695850332081013
54_T 30.549144883606736 -0.5325016729594481 42.35162894786796 5.144741637413565 1.7149138791378522 1.7149138791378522 0.0 -0.0 0.7425013715714329 0.6698445440656666
57_T 53.15084820940429 -2.4326285934315806 53.24648641552574 5.196447150474466 1.7321490501581487 1.7321490501581487 0.0 0.0 0.6906372933410847 0.7232013060320761
62_T 19.76539052104488 -2.7318686445675837 41.824610646396856 5.354702526656269 1.7849008422187427 1.7849008422187427 0.0 0.0 0.6993489688984815 0.7147803996337831