ITEM: TIMESTEP
655
ITEM: NUMBER OF ATOMS
262
ITEM: BOX BOUNDS ff ff ff
0 60.9
60.9 0
60.9 0
ITEM: ATOMS id x y z AsphericalShapeX AsphericalShapeY AsphericalShapeZ OrientationX OrientationY OrientationZ OrientationW
1 45.4541171565183 50.74157887220584 22.07748413976622 4.630565606161588 1.5435218687205345 1.5435218687205345 0.0 -0.0 0.7863642711635499 0.6177630881150306
2 4.78494377948631 18.370031122064525 21.13157877960311 4.6771035641976955 1.5590345213991992 1.5590345213991992 0.0 -0.0 0.8896314041555925 0.4566792799549252
3 19.17525180582386 11.357293421093043 57.60560877389157 4.724109236487739 1.5747030788292855 1.5747030788292855 0.0 0.0 0.631512325711268 0.7753658378305981
4 17.704934198939974 43.93999731385551 44.06278254916139 4.771587323638362 1.5905291078794772 1.5905291078794772 0.0 0.0 0.5765741652112841 0.8170448164029381
5 39.40892049551067 35.777019201456085 21.439022665498776 4.8195425734976665 1.6065141911658958 1.6065141911658958 0.0 -0.0 0.8873914294477543 0.4610167577677315
6 21.54438019712189 14.45563975961833 27.253445915629136 4.867979781630578 1.6226599272101987 1.6226599272101987 0.0 0.0 0.643710445538684 0.7652691437033046
7 17.813530872700383 56.376682754911975 38.260560379483636 4.91690379179829 1.6389679305994171 1.6389679305994171 0.0 -0.0 0.7603958793842515 0.6494598575858641
8 40.68515265023502 36.92694593078511 13.921388734859232 4.966319496442597 1.6554398321475705 1.6554398321475705 0.0 -0.0 0.7854601334426244 0.6189122545016335
9 51.82753267087973 6.282595405882322 52.408151567818535 5.016231837175272 1.6720772790584255 1.6720772790584255 0.0 -0.0 0.7176002965020949 0.6964551776389529
10 47.402422650661 14.120770562957722 12.874689828899243 5.0666458052718175 1.6888819350906101 1.6888819350906101 0.0 0.0 0.38534345666417513 0.9227732226317065
11 20.04467030699037 35.68451845094933 59.88365367497303 5.117566442171067 1.7058554807237032 1.7058554807237032 0.0 0.0 0.49983922045674145 0.866118209999765
12 12.656392341734986 17.271474679999308 24.39995741679051 5.168998839979136 1.7229996133264183 1.7229996133264183 0.0 0.0 0.2746680171135514 0.9615391205639581
13 10.96686015545902 50.65932925166085 15.049080562140842 5.2209481419788775 1.7403160473262853 1.7403160473262853 0.0 -0.0 0.7886508549344257 0.614841303924191
14 7.240237931787874 27.65392577275758 24.02901058200671 5.273419543143487 1.7578065143811512 1.7578065143811512 0.0 -0.0 0.7750680292508737 0.6318777967559605
15 27.954830657337304 44.91399070372418 19.074441060062252 5.326418290656976 1.7754727635523688 1.7754727635523688 0.0 0.0 0.6340811782098568 0.7732664866913604
16 19.69799136181718 31.311791157824004 50.37237982653518 5.37994968443839 1.7933165614794329 1.7933165614794329 0.0 -0.0 0.7629176367612683 0.6464956918020424
17 18.710217792151884 19.00846393917589 33.33377111689836 5.434019077671367 1.8113396925570953 1.8113396925570953 0.0 0.0 0.6579222258448839 0.7530858813836
18 36.30952885112384 30.06086775791214 16.860633884270523 5.488631877340453 1.8295439591134834 1.8295439591134834 0.0 0.0 0.506211649243881 0.8624092799650234
19 13.247577679787492 12.167094477403127 34.95747221357481 5.543793544771238 1.8479311815904083 1.8479311815904083 0.0 0.0 0.6434542777811493 0.7654845474633303
20 31.074759293791708 48.06006401278415 35.04441639561101 5.5995095961763 1.8665031987254654 1.8665031987254654 0.0 -0.0 0.7861857262579329 0.6179902942832407
21 46.87131535497396 15.827899527757232 45.40321650443634 5.655785603207247 1.8852618677357416 1.8852618677357416 0.0 0.0 0.6069811502172251 0.7947162281474907
22 15.546281224875722 7.357393056155845 29.94301016788472 5.712627193511707 1.9042090645038874 1.9042090645038874 0.0 -0.0 0.8910647246123514 0.45387625687131333
23 42.34721181716894 4.493298162488087 48.62885404025687 5.770040051296057 1.923346683765398 1.923346683765398 0.0 -0.0 0.7582829367961579 0.651925599868416
24 24.48107732457772 7.302099524826764 46.268509369280345 5.828029917893913 1.9426766392979824 1.9426766392979824 0.0 0.0 0.5255054740936084 0.8507902189715464
25 12.061219513005156 3.492117548250512 54.23735837620403 5.886602592340432 1.9622008641134452 1.9622008641134452 0.0 0.0 0.6637035342538496 0.7479957343587923
26 5.287174865357769 44.35689274312366 27.17154806691652 5.945763931951483 1.9819213106504947 1.9819213106504947 0.0 0.0 0.5361151400853296 0.8441448670526212
27 6.273070114664485 29.805861429550376 31.955755880568763 6.005519852910618 2.0018399509701856 2.0018399509701856 0.0 -0.0 0.7297620279401082 0.6837012378054764
28 13.54595165047422 34.645499025410885 29.190016975594062 6.06587633085967 2.0219587769531864 2.0219587769531864 0.0 -0.0 0.9828164757017253 0.18458541407500267
29 45.31368982584441 29.68774323627567 29.612401256093527 6.126839401496727 2.0422798004989247 2.0422798004989247 0.0 -0.0 0.8740853421614372 0.4857723897243679
30 20.84905805738438 0.902899308571941 24.189958371765183 6.188415161179625 2.062805053726557 2.062805053726557 0.0 -0.0 0.8433777540022546 0.5373210995802349
31 60.39333391245386 38.16173122810245 33.11597075659932 6.250609767535586 2.083536589178579 2.083536589178579 0.0 0.0 0.6952778540174372 0.7187410560924617
32 54.54727772696228 34.429637981948105 35.885043120355846 6.313429440077329 2.1044764800257907 2.1044764800257907 0.0 0.0 0.6353234605105568 0.7722461398575527
33 29.837175071867293 21.708877018363438 24.738755429700536 6.376880460824233 2.1256268202747046 2.1256268202747046 0.0 0.0 0.6411270229476993 0.7674347792784871
34 21.49430956747635 19.70860233217986 21.672537786285737 6.440969174931163 2.146989724977106 2.146989724977106 0.0 -0.0 0.7453722743584635 0.6666484625480594
35 21.15556015973266 45.091691697118094 39.375181320554155 6.505701991323195 2.168567330441106 2.168567330441106 0.0 -0.0 0.7109313362059317 0.7032614273514853
36 39.3664109199012 6.350052320807736 59.80190168575649 6.571085383335784 2.190361794445313 2.190361794445313 0.0 -0.0 0.739632735620696 0.6730107104632479
37 25.279440013896355 51.48588599080375 26.006388651624597 6.637125889362792 2.2123752964542787 2.2123752964542787 0.0 0.0 0.5163603530767541 0.8563714064414165
38 19.80742211036809 14.056128030034504 17.16039063021873 6.703830113509515 2.2346100378364624 2.2346100378364624 0.0 0.0 0.5145463711011363 0.8574625542766586
39 8.577956071119827 38.053024449083416 23.07237615164798 6.771204726254099 2.2570682420846997 2.2570682420846997 0.0 0.0 0.5880831456971182 0.8088004783300898
40 57.70339918552248 18.500339116469718 14.046432914533524 6.83925646511415 2.279752155038034 2.279752155038034 0.0 -0.0 0.8608342640850161 0.5088854191045453
41 9.956360322309214 16.72707213705242 29.693095171350716 6.907992135319945 2.302664045106644 2.302664045106644 0.0 0.0 0.5813114541301716 0.8136811373609846
42 12.730924878050066 56.06207112930671 41.42136090816773 6.9774186104959135 2.325806203498679 2.325806203498679 0.0 0.0 0.6858728758951139 0.7277213739552836
43 60.05622356565802 43.191055885406236 42.34776341567429 7.047542833347749 2.3491809444492184 2.3491809444492184 0.0 -0.0 0.8971229945165649 0.4417808650333688
44 43.73886496490689 20.639155248385148 26.058607182886625 7.118371816355642 2.372790605451865 2.372790605451865 0.0 -0.0 0.7662793896249596 0.6425075073771507
45 45.51038535448316 50.99997011294031 40.30317759902678 7.18991264247737 2.3966375474924124 2.3966375474924124 0.0 -0.0 0.8021859139948743 0.5970743332184094
46 15.202100077109426 49.112037217069826 13.538736422553672 7.2621724658546345 2.420724155284922 2.420724155284922 0.0 0.0 0.6689296931602822 0.7433256793683982
47 46.735824450413155 26.72835947122654 17.195518723045065 7.3351585125306125 2.4450528375102043 2.4450528375102043 0.0 -0.0 0.8121614142020023 0.5834328044268712
48 0.25085849186481457 48.166402071896414 13.675150156640724 7.408878081170449 2.469626027056817 2.469626027056817 0.0 0.0 0.43861391052531945 0.8986756019241242
49 24.654638743790443 0.9053331810702212 6.844444721866939 7.483338543792388 2.494446181264126 2.494446181264126 0.0 -0.0 0.7611420715427216 0.6485851886434459
50 26.13105845222211 19.578300291274434 59.63912910319001 7.558547346504963 2.519515782168285 2.519515782168285 0.0 0.0 0.5689873473401131 0.8223462765568174
51 47.780358718611936 25.552611423134113 40.120568588269066 7.634512010250956 2.544837336750313 2.544837336750313 0.0 -0.0 0.9816329176571261 0.1907794930592849
52 33.119363301209134 6.386550295367911 19.883015319944167 7.7112401315601105 2.5704133771866666 2.5704133771866666 0.0 -0.0 0.8312938914163103 0.5558331279205367
53 9.592517263233983 56.18130667537414 5.601486532954443 7.788739383308233 2.596246461102803 2.596246461102803 0.0 0.0 0.4937832216878833 0.8695850332081013
54 38.973200067612474 49.492919946312426 39.364168208909284 7.8670175154855295 2.622339171828507 2.622339171828507 0.0 -0.0 0.7425013715714329 0.6698445440656666
55 22.56620851881651 39.54232546250846 14.840572907392712 7.8670175154855295 2.622339171828507 2.622339171828507 0.0 -0.0 0.899222239431846 0.4374921303419936
56 41.56154821654522 5.092269647072315 18.914485486243347 7.946082355970278 2.6486941186567714 2.6486941186567714 0.0 0.0 0.591041689671776 0.8066410112744902
57 52.800745059176286 59.042186761413944 54.64455517290942 7.946082355970278 2.6486941186567714 2.6486941186567714 0.0 0.0 0.6906372933410847 0.7232013060320761
58 26.211050866132755 38.93090838389767 32.19468121220982 8.02594181131231 2.675313937104099 2.675313937104099 0.0 -0.0 0.9778925487455288 0.20910801779935065
59 37.13639465719107 57.04143884022765 22.677378776584355 8.02594181131231 2.675313937104099 2.675313937104099 0.0 -0.0 0.8334397726994561 0.5526103014626843
60 51.8087175817369 24.932521775032253 54.21564756849409 8.106603867523999 2.7022012891746177 2.7022012891746177 0.0 -0.0 0.8251393648538317 0.5649292243888745
61 7.014939830615576 11.854139754859217 40.382748754205466 8.106603867523999 2.7022012891746177 2.7022012891746177 0.0 -0.0 0.8342848482439009 0.5513336485202505
62 17.22517782053202 8.458925331940245 41.62229271378936 8.188076590877708 2.72935886362586 2.72935886362586 0.0 0.0 0.6993489688984815 0.7147803996337831
63 32.907738292123874 8.2851160776648 48.21778388353969 8.188076590877708 2.72935886362586 2.72935886362586 0.0 0.0 0.6638694557235675 0.747848477806363
64 42.7788907062324 32.9068508502362 46.39447215922343 8.270368128713999 2.7567893762379976 2.7567893762379976 0.0 0.0 0.5469534661185369 0.8371630103515794
65 11.41841539319158 28.748476171112188 4.615737182619924 8.270368128713999 2.7567893762379976 2.7567893762379976 0.0 0.0 0.534266604389083 0.8453160328744268
66 20.43493662227351 58.894255134869276 30.732962421903263 8.353486710254975 2.7844955700850336 2.7844955700850336 0.0 0.0 0.49259387534365895 0.8702593142126752
67 51.272068506423466 10.698881843710737 8.74851533686768 8.353486710254975 2.7844955700850336 2.7844955700850336 0.0 -0.0 0.7991221049958454 0.6011687461162707
68 37.97478598576093 21.586148756234447 23.49260900060683 8.437440647428568 2.8124802158095332 2.8124802158095332 0.0 -0.0 0.8113628171424923 0.5845428803420658
69 36.02089531921423 13.98403275158193 56.58489021357433 8.437440647428568 2.8124802158095332 2.8124802158095332 0.0 0.0 0.69974083585519 0.7143967823532522
70 14.415980376470484 0.07742030294813418 16.41765436298922 8.52223833569793 2.84074611189933 2.84074611189933 0.0 -0.0 0.9226100212719841 0.3857340387475665
71 16.324074768659088 3.5709216824056678 24.47364298297299 8.52223833569793 2.84074611189933 2.84074611189933 0.0 -0.0 0.8908476943010929 0.4543020862360491
72 8.997514078001913 45.00034528690662 8.863943273648124 8.607888254902763 2.8692960849676172 2.8692960849676172 0.0 -0.0 0.9180976465577227 0.39635427509384946
73 39.73816352107572 36.99364419298022 27.9041707641214 8.607888254902763 2.8692960849676172 2.8692960849676172 0.0 0.0 0.6852526383261238 0.7283054453092375
74 40.65359894284274 15.783915796362246 14.439839275523882 8.69439897010645 2.898132990035487 2.898132990035487 0.0 0.0 0.6622208999947843 0.7493086677799063
75 48.993588096145835 40.08050688451358 47.12105133753978 8.69439897010645 2.898132990035487 2.898132990035487 0.0 0.0 0.6669694181073614 0.7450850926636016
76 0.4332476420395832 15.023934689223822 29.419421924945627 8.781779132452327 2.9272597108175056 2.9272597108175056 0.0 0.0 0.4849872773235938 0.8745212066235144
77 17.81775695539117 46.12230371199841 18.878482732651467 8.781779132452327 2.9272597108175056 2.9272597108175056 0.0 -0.0 0.724549744492829 0.6892225096116464
78 3.114000724092805 12.603771384875479 15.472700838106395 8.870037480029838 2.956679160009927 2.956679160009927 0.0 0.0 0.646327957303847 0.7630597431442944
79 60.53363063400235 25.831192808449234 28.113100233629275 8.870037480029838 2.956679160009927 2.956679160009927 0.0 0.0 0.4210348644808628 0.9070444547493698
80 1.663260848509792 7.274868328172729 23.01936441162247 8.959182838747004 2.986394279582321 2.986394279582321 0.0 0.0 0.5786941501693628 0.8155446527074768
81 58.67545523550655 51.83295190086798 27.755763504562626 8.959182838747004 2.986394279582321 2.986394279582321 0.0 0.0 0.683142879342022 0.730284743373632
82 13.563966482535063 1.232857519718619 6.048388727207844 9.04922412321396 3.016408041071286 3.016408041071286 0.0 0.0 0.3480344086077516 0.937481760049257
83 16.268872820062324 47.026140857088116 2.9180771142720805 9.04922412321396 3.016408041071286 3.016408041071286 0.0 -0.0 0.8280938516825816 0.560589486884571
84 34.58117596325972 23.387511179970815 5.488148382574375 9.140170337634268 3.0467234458781203 3.0467234458781203 0.0 -0.0 0.8521868438699086 0.5232375972109076
85 19.85240771902649 45.93644170541006 25.745284765565827 9.140170337634268 3.0467234458781203 3.0467234458781203 0.0 0.0 0.2683204071818837 0.9633297250109892
86 8.033064455677174 0.5922060715303951 56.79586484673604 9.232030576705226 3.077343525568396 3.077343525568396 0.0 0.0 0.5717525694490604 0.8204261083902665
87 7.693577409346938 3.5087292364677625 45.47660474442165 9.232030576705226 3.077343525568396 3.077343525568396 0.0 -0.0 0.7407334016199733 0.6717990977401677
88 34.64220557189488 46.9430020747495 55.07020941803916 9.32481402652735 3.1082713421757533 3.1082713421757533 0.0 0.0 0.6524446383875427 0.7578363898885753
89 38.35191866468079 19.72021700840213 46.45712348266902 9.32481402652735 3.1082713421757533 3.1082713421757533 0.0 0.0 0.3815125934194192 0.9243636411404275
90 18.259795560976396 15.196529257464977 51.8451008671704 9.418529965522847 3.139509988507585 3.139509988507585 0.0 -0.0 0.7664413141092511 0.642314340511314
91 29.3758512692642 1.4804551266716839 27.03968475044199 9.418529965522847 3.139509988507585 3.139509988507585 0.0 -0.0 0.7164030651197486 0.6976866404676452
92 52.690564114228664 15.91817509918123 36.611435203126206 9.5131877653635 3.171062588454467 3.171062588454467 0.0 0.0 0.3159382626609752 0.9487797500931208
93 15.237520382629032 28.663933291071626 34.95596119965202 9.5131877653635 3.171062588454467 3.171062588454467 0.0 -0.0 0.807675111463051 0.5896277760783901
94 53.52232403288837 16.950388548443904 47.34257751276641 9.608796891908387 3.202932297302793 3.202932297302793 0.0 0.0 0.5856043209472178 0.8105970511221638
95 42.955068512481205 58.08158887140552 54.2377628650583 9.608796891908387 3.202932297302793 3.202932297302793 0.0 -0.0 0.8283891439806925 0.5601530381377355
96 46.18355863376099 11.788949404950678 40.466950099422554 9.705366906149951 3.2351223020500157 3.2351223020500157 0.0 0.0 0.6380161188650698 0.7700230074928626
97 27.882210252525848 56.21559090957432 19.241893629925226 9.705366906149951 3.2351223020500157 3.2351223020500157 0.0 0.0 0.5652655734899162 0.8249089837231233
98 19.616010903381824 22.586256597776202 40.19206599106184 9.802907465169868 3.2676358217232497 3.2676358217232497 0.0 -0.0 0.9884337224668884 0.15165347437579585
99 49.89470432061983 41.19888671371333 6.6558306329138235 9.802907465169868 3.2676358217232497 3.2676358217232497 0.0 0.0 0.644584962479319 0.7645326848117973
100 27.479306323902215 35.19114353675792 55.08633761217475 9.901428323105524 3.300476107701881 3.300476107701881 0.0 -0.0 0.7665764345255346 0.6421530736748979
101 15.98792435201688 21.497325849116333 60.41675369079383 9.901428323105524 3.300476107701881 3.300476107701881 0.0 -0.0 0.7486465484609144 0.6629693397718779
102 40.96148502555926 43.50898385075346 8.748497786779946 10.000939332124592 3.3336464440415767 3.3336464440415767 0.0 -0.0 0.764238184631255 0.644934102952793
103 25.545279044749382 42.2790018962122 60.59329214796334 10.000939332124592 3.3336464440415767 3.3336464440415767 0.0 -0.0 0.7262700822056904 0.6874094614514261
104 49.711435673994785 60.479151482111284 48.99843088851702 10.10145044341121 3.3671501478036667 3.3671501478036667 0.0 0.0 0.6864264585310771 0.7271992278794606
105 22.04937442913319 48.396872837718455 10.065054913011867 10.10145044341121 3.3671501478036667 3.3671501478036667 0.0 -0.0 0.8498704758576332 0.5269916263713497
106 14.001093121128172 19.07428820011958 48.03662819103075 10.202971708159733 3.4009905693866203 3.4009905693866203 0.0 -0.0 0.793590538753224 0.6084521811953406
107 40.35514294285823 44.32715570736816 18.235829141163418 10.202971708159733 3.4009905693866203 3.4009905693866203 0.0 -0.0 0.8299364941277125 0.5578578812878792
108 51.9728894355665 42.988021632075466 57.93824699660171 10.305513278581827 3.435171092860584 3.435171092860584 0.0 -0.0 0.7596155095013813 0.650372414640225
109 59.783747653418445 41.23653319408794 5.103713840921758 10.305513278581827 3.435171092860584 3.435171092860584 0.0 -0.0 0.746179639226726 0.6657446552571586
110 43.529234688871526 18.92683808022819 52.510249370062915 10.409085408919651 3.4696951363065263 3.4696951363065263 0.0 -0.0 0.7434755474029917 0.6687631198068729
111 33.15427475871824 42.83185162097355 26.662257258973447 10.409085408919651 3.4696951363065263 3.4696951363065263 0.0 -0.0 0.7635489887521677 0.6457499065238353
112 52.711627894043104 0.22425984648871028 17.938387703039243 10.513698456472662 3.504566152157623 3.504566152157623 0.0 -0.0 0.925703395166632 0.3782502137170186
113 19.639563937146722 9.520662690528205 11.108401059289893 10.513698456472662 3.504566152157623 3.504566152157623 0.0 -0.0 0.7476030998596368 0.6641457709571461
114 7.460529841376294 6.117968299184999 33.87350810343264 10.61936288263296 3.5397876275442726 3.5397876275442726 0.0 -0.0 0.7095009508808979 0.7047044775642494
115 29.24119809421912 16.673655171077783 53.331699505635875 10.61936288263296 3.5397876275442726 3.5397876275442726 0.0 0.0 0.692332939305712 0.7215782016887105
116 10.504985843072438 34.19160151529317 54.82788862749229 10.726089253930715 3.5753630846435938 3.5753630846435938 0.0 0.0 0.4838188577050026 0.8751681626573412
117 49.6793275302924 38.12885767265793 23.551648096603444 10.726089253930715 3.5753630846435938 3.5753630846435938 0.0 0.0 0.4072390243389004 0.9133216175343166
118 47.61908384158314 18.283411604131487 60.151081291471506 10.833888243092368 3.611296081030791 3.611296081030791 0.0 -0.0 0.9854258972554679 0.17010526452245991
119 38.093865777245995 30.973735199705587 59.2457545640631 10.833888243092368 3.611296081030791 3.611296081030791 0.0 0.0 0.693566054094668 0.720393037589587
120 26.843042784489757 26.20809221496049 30.760751262715903 10.9427706301068 3.6475902100355495 3.6475902100355495 0.0 -0.0 0.8546373086497397 0.5192254526349123
121 60.161035325943985 40.608499834196465 58.49234323437947 10.9427706301068 3.6475902100355495 3.6475902100355495 0.0 -0.0 0.738138054050796 0.6746496966293722
122 58.43937409180343 26.44496323480126 0.943297481260859 11.05274730330304 3.68424910110102 3.68424910110102 0.0 0.0 0.30497028615780525 0.9523618663936657
123 43.425044184128836 43.58257936482573 52.71771253808728 11.05274730330304 3.68424910110102 3.68424910110102 0.0 -0.0 0.8240326158671573 0.5665423620411186
124 7.063779214104736 49.316305579220696 0.37446982462723033 11.163829260440396 3.7212764201467916 3.7212764201467916 0.0 -0.0 0.7351480847541838 0.6779065521753388
125 60.22269646764496 56.17878784761072 51.872821922694264 11.163829260440396 3.7212764201467916 3.7212764201467916 0.0 0.0 0.6354145425399089 0.7721711980699606
126 36.57635012668736 59.2049215193764 42.476171927940804 11.276027609806933 3.758675869935673 3.758675869935673 0.0 -0.0 0.9631928649301144 0.2688112812880415
127 60.59597064822099 23.222648933466864 39.34439988677677 11.276027609806933 3.758675869935673 3.758675869935673 0.0 0.0 0.6645731125154195 0.7472232451694524
128 7.539923707308807 49.453194088527 49.80053578176059 11.389353571331005 3.796451190443667 3.796451190443667 0.0 -0.0 0.837305869343264 0.5467347447925007
129 36.34420135725465 59.72960605153366 12.048304526378164 11.389353571331005 3.796451190443667 3.796451190443667 0.0 0.0 0.6718759690179156 0.7406636768846148
130 30.50650610203395 37.88513847153103 14.758027410392081 11.503818477703609 3.8346061592345326 3.8346061592345326 0.0 -0.0 0.8172568989423515 0.5762735124323614
131 7.724426517786676 37.99214270275798 38.75551780042924 11.503818477703609 3.8346061592345326 3.8346061592345326 0.0 0.0 0.5650588956672867 0.8250505708302167
132 26.22829432845405 0.14955117611713575 52.42450527670882 11.619433775510476 3.873144591836859 3.873144591836859 0.0 0.0 0.5632303093681869 0.8262999568008076
133 15.12920136409605 49.046667704422624 33.440652759137315 11.619433775510476 3.873144591836859 3.873144591836859 0.0 0.0 0.7047758212396541 0.7094300823872436
134 58.96727857898661 31.214486794159875 47.32594028742324 11.736211026377692 3.9120703421258876 3.9120703421258876 0.0 -0.0 0.7457546235329385 0.6662207152882933
135 43.07245709131503 46.782233045219904 0.19201193059434912 11.736211026377692 3.9120703421258876 3.9120703421258876 0.0 0.0 0.5807371118896761 0.8140911539097067
136 21.99102649686904 4.4227658943615245 0.3590808279610467 11.854161908127782 3.9513873027092843 3.9513873027092843 0.0 -0.0 0.7765636880913803 0.6300387593933514
137 1.4474127334434146 47.092190104655806 21.17179561111194 11.854161908127782 3.9513873027092843 3.9513873027092843 0.0 -0.0 0.9207785641385271 0.39008567754147583
138 52.22243774283316 21.53080781978879 24.42750547286957 11.97329821594727 3.9910994053157243 3.9910994053157243 0.0 0.0 0.5933031767685688 0.8049790931672228
139 8.05771218194442 11.065744903991735 60.841900146156014 11.97329821594727 3.9910994053157243 3.9910994053157243 0.0 0.0 0.36293328461656904 0.9318151270061183
140 1.5695407881859076 59.84776199798244 39.58559539213901 12.093631863566348 4.031210621188776 4.031210621188776 0.0 0.0 0.5657838974393875 0.8245535649054563
141 18.71555679260702 44.22759444764791 54.268529118077055 12.093631863566348 4.031210621188776 4.031210621188776 0.0 0.0 0.5898626798291705 0.8075035720941112
142 6.1682278913063815 16.98734550900853 8.133249225687667 12.215174884449361 4.071724961483182 4.071724961483182 0.0 0.0 0.494526605223718 0.8691624915548904
143 32.61957259932941 58.472481320694975 0.014924390197624843 12.215174884449361 4.071724961483182 4.071724961483182 0.0 0.0 0.6621201748514545 0.7493976741721844
144 9.304487819569529 28.478143051089965 46.740061543361016 12.337939433000422 4.112646477666883 4.112646477666883 0.0 -0.0 0.8358120424685423 0.5490156916378287
145 11.118438496665455 25.22715453734412 14.874901716904603 12.337939433000422 4.112646477666883 4.112646477666883 0.0 -0.0 0.7380766977143534 0.6747168208152773
146 20.047174453314224 56.539374265132565 47.67092081526959 12.461937785776371 4.153979261925526 4.153979261925526 0.0 0.0 0.5600689403365469 0.8284460043179022
147 38.083105717731726 16.009204472685525 33.744732990308734 12.461937785776371 4.153979261925526 4.153979261925526 0.0 -0.0 0.8053653384335279 0.5927787712543771
148 0.5342753728361895 19.67532952190593 53.736945274136794 12.58718234271614 4.195727447572067 4.195727447572067 0.0 -0.0 0.9475491048281723 0.31961022189430877
149 47.135434711678684 0.2862032499350473 25.34854831520831 12.58718234271614 4.195727447572067 4.195727447572067 0.0 -0.0 0.8855269061838191 0.46458809543994295
150 19.036034372561026 30.97187059595668 23.765774754402745 12.713685628379361 4.237895209459789 4.237895209459789 0.0 -0.0 0.8997163709941051 0.43647502994466686
151 34.296117449628824 30.71751182366469 39.89647596044278 12.713685628379361 4.237895209459789 4.237895209459789 0.0 0.0 0.6949034215940625 0.7191030765174521
152 56.82455121792149 4.341177107165802 1.4974240523498714 12.841460293200237 4.280486764400057 4.280486764400057 0.0 0.0 0.6496096252583186 0.7602679361723385
153 33.35278949085204 42.1899082586939 6.398356970116254 12.841460293200237 4.280486764400057 4.280486764400057 0.0 0.0 0.6980264017745981 0.7160720232110785
154 38.32533309882048 14.342519027217639 6.346425668465713 12.970519114751427 4.323506371583788 4.323506371583788 0.0 -0.0 0.9126309719920443 0.4087844284716046
155 21.614137155535445 31.33987713394427 8.46405700728909 12.970519114751427 4.323506371583788 4.323506371583788 0.0 0.0 0.34897032679986184 0.9371337743423815
156 33.97537193172833 43.1138313699461 47.60999272243553 13.100874999023237 4.366958333007657 4.366958333007657 0.0 0.0 0.6995675014656925 0.7145665195718649
157 25.287490959124465 31.31526461816897 46.486386466547124 13.100874999023237 4.366958333007657 4.366958333007657 0.0 0.0 0.63565327495599 0.7719746848425306
158 50.10456737658001 0.26162784402319517 34.96782169377097 13.232540981712267 4.4108469939040305 4.4108469939040305 0.0 -0.0 0.7426985308561326 0.6696259345814963
159 26.12336465415588 17.99772957268949 15.702049730261033 13.232540981712267 4.4108469939040305 4.4108469939040305 0.0 0.0 0.4891044501540252 0.8722252213961303
160 46.803688335901384 0.6328905082227729 2.8560504753932103 13.365530229526515 4.455176743175533 4.455176743175533 0.0 0.0 0.6466947184788655 0.7627489371290798
161 28.667281360258027 7.989938524559285 36.63509518746644 13.365530229526515 4.455176743175533 4.455176743175533 0.0 0.0 0.6377575578887067 0.7702371695496348
162 1.0519853860041688 2.2241158329115005 8.995781651956634 13.49985604150148 4.4999520138337985 4.4999520138337985 0.0 0.0 0.6701572236966805 0.7422191694689361
163 39.15576037436676 60.40693741785074 33.141147440675894 13.49985604150148 4.4999520138337985 4.4999520138337985 0.0 -0.0 0.7797338016261434 0.6261111711203069
164 43.55366383995529 39.897351388004445 34.681950866249714 13.63553185033087 4.545177283443623 4.545177283443623 0.0 0.0 0.6966086930688543 0.7174512727293072
165 2.0185495069042236 32.11471477205647 17.530739587477957 13.63553185033087 4.545177283443623 4.545177283443623 0.0 -0.0 0.8994069955971553 0.43711217813153935
7_T 17.813530872700383 -4.523317245088023 38.260560379483636 4.91690379179829 1.6389679305994171 1.6389679305994171 0.0 -0.0 0.7603958793842515 0.6494598575858641
11_F 20.04467030699037 35.68451845094933 -1.0163463250269658 5.117566442171067 1.7058554807237032 1.7058554807237032 0.0 0.0 0.49983922045674145 0.866118209999765
23_B 42.34721181716894 65.39329816248808 48.62885404025687 5.770040051296057 1.923346683765398 1.923346683765398 0.0 -0.0 0.7582829367961579 0.651925599868416
25_B 12.061219513005156 64.39211754825051 54.23735837620403 5.886602592340432 1.9622008641134452 1.9622008641134452 0.0 0.0 0.6637035342538496 0.7479957343587923
30_B 20.84905805738438 61.80289930857194 24.189958371765183 6.188415161179625 2.062805053726557 2.062805053726557 0.0 -0.0 0.8433777540022546 0.5373210995802349
31_L -0.5066660875461366 38.16173122810245 33.11597075659932 6.250609767535586 2.083536589178579 2.083536589178579 0.0 0.0 0.6952778540174372 0.7187410560924617
36_BB 39.3664109199012 67.25005232080774 59.80190168575649 6.571085383335784 2.190361794445313 2.190361794445313 0.0 -0.0 0.739632735620696 0.6730107104632479
36_FT 39.3664109199012 6.350052320807736 -1.098098314243508 6.571085383335784 2.190361794445313 2.190361794445313 0.0 -0.0 0.739632735620696 0.6730107104632479
36_FB 39.3664109199012 67.25005232080774 -1.098098314243508 6.571085383335784 2.190361794445313 2.190361794445313 0.0 -0.0 0.739632735620696 0.6730107104632479
40_L -3.19660081447752 18.500339116469718 14.046432914533524 6.83925646511415 2.279752155038034 2.279752155038034 0.0 -0.0 0.8608342640850161 0.5088854191045453
42_T 12.730924878050066 -4.83792887069329 41.42136090816773 6.9774186104959135 2.325806203498679 2.325806203498679 0.0 0.0 0.6858728758951139 0.7277213739552836
43_L -0.8437764343419758 43.191055885406236 42.34776341567429 7.047542833347749 2.3491809444492184 2.3491809444492184 0.0 -0.0 0.8971229945165649 0.4417808650333688
48_R 61.15085849186481 48.166402071896414 13.675150156640724 7.408878081170449 2.469626027056817 2.469626027056817 0.0 0.0 0.43861391052531945 0.8986756019241242
49_B 24.654638743790443 61.80533318107022 6.844444721866939 7.483338543792388 2.494446181264126 2.494446181264126 0.0 -0.0 0.7611420715427216 0.6485851886434459
50_F 26.13105845222211 19.578300291274434 -1.2608708968099904 7.558547346504963 2.519515782168285 2.519515782168285 0.0 0.0 0.5689873473401131 0.8223462765568174
52_B 33.119363301209134 67.2865502953679 19.883015319944167 7.7112401315601105 2.5704133771866666 2.5704133771866666 0.0 -0.0 0.8312938914163103 0.5558331279205367
53_T 9.592517263233983 -4.71869332462586 5.601486532954443 7.788739383308233 2.596246461102803 2.596246461102803 0.0 0.0 0.4937832216878833 0.8695850332081013
56_B 41.56154821654522 65.99226964707232 18.914485486243347 7.946082355970278 2.6486941186567714 2.6486941186567714 0.0 0.0 0.591041689671776 0.8066410112744902
57_T 52.800745059176286 -1.8578132385860542 54.64455517290942 7.946082355970278 2.6486941186567714 2.6486941186567714 0.0 0.0 0.6906372933410847 0.7232013060320761
59_T 37.13639465719107 -3.85856115977235 22.677378776584355 8.02594181131231 2.675313937104099 2.675313937104099 0.0 -0.0 0.8334397726994561 0.5526103014626843