ITEM: TIMESTEP
106
ITEM: NUMBER OF ATOMS
176
ITEM: BOX BOUNDS ff ff ff
0 60.9
60.9 0
60.9 0
ITEM: ATOMS id x y z AsphericalShapeX AsphericalShapeY AsphericalShapeZ OrientationX OrientationY OrientationZ OrientationW
1 36.93671817994439 9.646560678254911 7.586327989041816 0.7552904266147645 0.25176347553825407 0.25176347553825407 0.0 -0.0 0.7863642711635499 0.6177630881150306
2 26.685643121029482 1.595678115133605 27.241296261762113 0.762881221599313 0.25429374053310505 0.25429374053310505 0.0 -0.0 0.8896314041555925 0.4566792799549252
3 17.0503681082813 21.215075464512978 49.35643928573022 0.770548305341763 0.25684943511392044 0.25684943511392044 0.0 0.0 0.631512325711268 0.7753658378305981
4 35.713023885674914 34.077143368263904 27.636603052056714 0.7782924445568677 0.25943081485228897 0.25943081485228897 0.0 0.0 0.5765741652112841 0.8170448164029381
5 10.967974808263833 25.053651152270362 40.58719481238673 0.7861144136650127 0.26203813788833713 0.26203813788833713 0.0 -0.0 0.8873914294477543 0.4610167577677315
6 23.412002000576535 18.87950598142271 15.501732781159179 0.794014994869617 0.26467166495653927 0.26467166495653927 0.0 0.0 0.643710445538684 0.7652691437033046
7 57.03926661783112 4.070373672548332 17.80025492071766 0.8019949782353917 0.26733165941179743 0.26733165941179743 0.0 -0.0 0.7603958793842515 0.6494598575858641
8 47.43156459864779 40.01077110863469 60.618184902162575 0.8100551617673191 0.27001838725577293 0.27001838725577293 0.0 -0.0 0.7854601334426244 0.6189122545016335
9 49.72661463827485 1.7661034466970529 1.3728540699903817 0.8181963514904723 0.2727321171634913 0.2727321171634913 0.0 -0.0 0.7176002965020949 0.6964551776389529
10 27.504864387613907 52.422147488553776 11.326288721424433 0.8264193615306111 0.2754731205102026 0.2754731205102026 0.0 0.0 0.38534345666417513 0.9227732226317065
11 31.805044716899925 55.94418858582212 55.17328570759087 0.8347250141955851 0.278241671398528 0.278241671398528 0.0 0.0 0.49983922045674145 0.866118209999765
12 19.475003929060176 52.519516156002794 15.527160117153786 0.8431141400575848 0.28103804668586113 0.28103804668586113 0.0 0.0 0.2746680171135514 0.9615391205639581
13 30.079445392749825 52.751127463564195 54.183230981868725 0.851587578036186 0.2838625260120619 0.2838625260120619 0.0 -0.0 0.7886508549344257 0.614841303924191
14 14.498491693737828 56.72050111991599 30.529376285007757 0.8601461754822504 0.28671539182741757 0.28671539182741757 0.0 -0.0 0.7750680292508737 0.6318777967559605
15 17.393935816120617 1.0725899408786232 30.733753492419748 0.868790788262655 0.28959692942088594 0.28959692942088594 0.0 0.0 0.6340811782098568 0.7732664866913604
16 17.192125604765156 44.37794870712019 45.97590905949271 0.8775222808458816 0.29250742694862714 0.29250742694862714 0.0 -0.0 0.7629176367612683 0.6464956918020424
17 36.167746284265824 45.54717748079813 37.8773556652361 0.8863415263884646 0.29544717546282123 0.29544717546282123 0.0 0.0 0.6579222258448839 0.7530858813836
18 4.560230252382582 47.53408749706955 52.50776644955953 0.8952494068223065 0.2984164689407686 0.2984164689407686 0.0 0.0 0.506211649243881 0.8624092799650234
19 9.155171514974104 8.105248430813996 41.2067203944394 0.9042468129428697 0.30141560431428965 0.30141560431428965 0.0 0.0 0.6434542777811493 0.7654845474633303
20 18.024414849679292 57.8163434889239 5.84290753710553 0.9133346444982744 0.30444488149942384 0.30444488149942384 0.0 -0.0 0.7861857262579329 0.6179902942832407
21 26.93982995175305 35.530930950516314 45.5353060422441 0.9225138102792375 0.3075046034264134 0.3075046034264134 0.0 0.0 0.6069811502172251 0.7947162281474907
22 35.235452698526345 3.4604005530323168 11.229474248240784 0.9317852282099983 0.3105950760699994 0.3105950760699994 0.0 -0.0 0.8910647246123514 0.45387625687131333
23 40.94731508378411 51.213403929197916 38.73222901303995 0.9411498254400655 0.3137166084800227 0.3137166084800227 0.0 -0.0 0.7582829367961579 0.651925599868416
24 23.09834333153956 52.577515062661774 46.18313684501888 0.9506085384369775 0.31686951281232506 0.31686951281232506 0.0 0.0 0.5255054740936084 0.8507902189715464
25 1.822295314937719 14.341923715913175 28.919739823134886 0.960162313079903 0.32005410435996756 0.32005410435996756 0.0 0.0 0.6637035342538496 0.7479957343587923
26 54.662271305794455 30.514017407563635 12.268630281615593 0.9698121047542797 0.3232707015847601 0.3232707015847601 0.0 0.0 0.5361151400853296 0.8441448670526212
27 57.63239050246744 38.35302922581929 3.037114251709882 0.9795588784473092 0.326519626149102 0.326519626149102 0.0 -0.0 0.7297620279401082 0.6837012378054764
28 50.487867826700516 17.13568437091162 33.54373476918064 0.989403608844481 0.3298012029481613 0.3298012029481613 0.0 -0.0 0.9828164757017253 0.18458541407500267
29 42.38948085004117 41.198835785351214 22.389022679045762 0.9993472804270476 0.33311576014234917 0.33311576014234917 0.0 -0.0 0.8740853421614372 0.4857723897243679
30 14.748124128665037 17.28164007924729 36.06032281562477 1.0093908875704485 0.33646362919014916 0.33646362919014916 0.0 -0.0 0.8433777540022546 0.5373210995802349
31 28.899421681478646 43.214149040412664 40.00403795709135 1.0195354346437684 0.339845144881256 0.339845144881256 0.0 0.0 0.6952778540174372 0.7187410560924617
32 24.933433992629645 37.48443951084787 45.7254494763244 1.0297819361101705 0.34326064537005585 0.34326064537005585 0.0 0.0 0.6353234605105568 0.7722461398575527
33 24.990100030012485 18.321454078916123 19.215574615678843 1.0401314166283324 0.34671047220944523 0.34671047220944523 0.0 0.0 0.6411270229476993 0.7674347792784871
34 7.81537307484944 20.466820362123926 9.382965917119083 1.0505849111549392 0.3501949703849793 0.3501949703849793 0.0 -0.0 0.7453722743584635 0.6666484625480594
35 28.533486311151467 25.89239751824881 49.5341323440309 1.0611434650481537 0.35371448834938357 0.35371448834938357 0.0 -0.0 0.7109313362059317 0.7032614273514853
36 17.493618073014048 50.95826525533831 33.632155705343635 1.071808134172162 0.3572693780573862 0.3572693780573862 0.0 -0.0 0.739632735620696 0.6730107104632479
37 56.74964570986158 45.08581673896825 48.14977156634417 1.082579985002761 0.3608599950009201 0.3608599950009201 0.0 0.0 0.5163603530767541 0.8563714064414165
38 60.59515300435109 22.642196848461797 31.35109058563259 1.093460094734012 0.3644866982446714 0.3644866982446714 0.0 0.0 0.5145463711011363 0.8574625542766586
39 5.511752089460908 30.957071691590308 7.0219937926233005 1.1044495513859587 0.3681498504619864 0.3681498504619864 0.0 0.0 0.5880831456971182 0.8088004783300898
40 51.382841951999495 3.045348593977894 24.304288026783784 1.1155494539134212 0.3718498179711411 0.3718498179711411 0.0 -0.0 0.8608342640850161 0.5088854191045453
41 11.017235622091757 36.72144993152503 45.947303228796905 1.1267609123159057 0.3755869707719681 0.3755869707719681 0.0 0.0 0.5813114541301716 0.8136811373609846
42 42.27948079030896 19.061579483774587 26.841432275098338 1.1380850477485913 0.37936168258286374 0.37936168258286374 0.0 0.0 0.6858728758951139 0.7277213739552836
43 5.233013302308324 53.601607473161195 40.492025862914936 1.1495229926344595 0.3831743308781521 0.3831743308781521 0.0 -0.0 0.8971229945165649 0.4417808650333688
44 24.888787176365483 40.13043789247163 28.97444292476481 1.161075890777525 0.3870252969258414 0.3870252969258414 0.0 -0.0 0.7662793896249596 0.6425075073771507
45 44.241790072039976 60.61124288551487 6.317819055730853 1.1727448974772392 0.3909149658257456 0.3909149658257456 0.0 -0.0 0.8021859139948743 0.5970743332184094
46 22.708645909801078 50.24844575453302 18.696388327386973 1.1845311796439921 0.3948437265479976 0.3948437265479976 0.0 0.0 0.6689296931602822 0.7433256793683982
47 36.320935586864024 0.28815644793407913 32.63665344002947 1.1964359159158169 0.3988119719719391 0.3988119719719391 0.0 -0.0 0.8121614142020023 0.5834328044268712
48 30.70016654515599 30.69605135898545 31.23819255959735 1.2084602967762714 0.40282009892542475 0.40282009892542475 0.0 0.0 0.43861391052531945 0.8986756019241242
49 17.93120008988994 27.94283018330695 58.89907721899459 1.220605524673455 0.4068685082244862 0.4068685082244862 0.0 -0.0 0.7611420715427216 0.6485851886434459
50 27.204497161514727 54.969181030227254 52.04807504864456 1.2328728141402858 0.4109576047134272 0.4109576047134272 0.0 0.0 0.5689873473401131 0.8223462765568174
51 43.471744110604185 37.371261172577704 42.733559734390994 1.245263391915922 0.41508779730530654 0.41508779730530654 0.0 -0.0 0.9816329176571261 0.1907794930592849
52 8.883141930380642 57.59267818508125 50.692504488014855 1.2577784970684722 0.4192594990228257 0.4192594990228257 0.0 -0.0 0.8312938914163103 0.5558331279205367
53 34.79470172702948 16.13048647142328 56.725023488265464 1.2704193811188889 0.4234731270396279 0.4234731270396279 0.0 0.0 0.4937832216878833 0.8695850332081013
54 16.476236300995208 24.859107188260683 20.968359044154543 1.2831873081660963 0.4277291027220325 0.4277291027220325 0.0 -0.0 0.7425013715714329 0.6698445440656666
55 17.26431171345876 45.80873959640099 6.712929790716132 1.2831873081660963 0.4277291027220325 0.4277291027220325 0.0 -0.0 0.899222239431846 0.4374921303419936
56 35.37178564291898 30.752928091852556 54.50862139453914 1.2960835550134462 0.43202785167115043 0.43202785167115043 0.0 0.0 0.591041689671776 0.8066410112744902
57 46.88343240768237 13.10363483082211 41.69814408721381 1.2960835550134462 0.43202785167115043 0.43202785167115043 0.0 0.0 0.6906372933410847 0.7232013060320761
58 33.11680801172878 29.90402396145201 29.8559888369858 1.3091094112963775 0.43636980376545886 0.43636980376545886 0.0 -0.0 0.9778925487455288 0.20910801779935065
59 31.98835607513142 38.45170200347732 58.61086694028736 1.3091094112963775 0.43636980376545886 0.43636980376545886 0.0 -0.0 0.8334397726994561 0.5526103014626843
60 25.31477723412921 28.36973859161081 29.34027494069689 1.3222661796113602 0.4407553932037867 0.4407553932037867 0.0 -0.0 0.8251393648538317 0.5649292243888745
61 34.09795873010625 21.283659226119703 58.75625414615754 1.3222661796113602 0.4407553932037867 0.4407553932037867 0.0 -0.0 0.8342848482439009 0.5513336485202505
62 51.162832364365144 3.6614739677514283 28.638047020903976 1.335555175646197 0.44518505854873397 0.44518505854873397 0.0 0.0 0.6993489688984815 0.7147803996337831
63 31.706503436214458 38.26521650539589 18.836047112901458 1.335555175646197 0.44518505854873397 0.44518505854873397 0.0 0.0 0.6638694557235675 0.747848477806363
64 17.217675959425375 46.45486911517952 14.848390506630212 1.3489777283115676 0.449659242770524 0.449659242770524 0.0 0.0 0.5469534661185369 0.8371630103515794
65 1.7698810029892509 57.19671724542792 31.305243009029816 1.3489777283115676 0.449659242770524 0.449659242770524 0.0 0.0 0.534266604389083 0.8453160328744268
66 42.001695644178355 12.57862428180623 22.971476285246798 1.362535179873925 0.4541783932913078 0.4541783932913078 0.0 0.0 0.49259387534365895 0.8702593142126752
67 58.80062190001294 1.0678825562952212 1.3703310417388035 1.362535179873925 0.4541783932913078 0.4541783932913078 0.0 -0.0 0.7991221049958454 0.6011687461162707
68 15.751431059458728 48.651663063536404 39.17435646112031 1.3762288860897134 0.4587429620299024 0.4587429620299024 0.0 -0.0 0.8113628171424923 0.5845428803420658
69 45.171506193464815 55.8168725981364 19.75179679658264 1.3762288860897134 0.4587429620299024 0.4587429620299024 0.0 0.0 0.69974083585519 0.7143967823532522
70 28.653949811241397 15.693070932539253 18.30184729574631 1.390060216340968 0.463353405446991 0.463353405446991 0.0 -0.0 0.9226100212719841 0.3857340387475665
71 59.75425953816284 47.5843553261479 58.08798170485549 1.390060216340968 0.463353405446991 0.463353405446991 0.0 -0.0 0.8908476943010929 0.4543020862360491
72 50.03001401503305 13.819290930279742 10.541089282579222 1.4040305537722504 0.4680101845907515 0.4680101845907515 0.0 -0.0 0.9180976465577227 0.39635427509384946
73 52.52860733789889 42.65761309303827 35.734278369966304 1.4040305537722504 0.4680101845907515 0.4680101845907515 0.0 0.0 0.6852526383261238 0.7283054453092375
74 8.10575499041873 15.114849822605812 15.253140496299118 1.4181412954289372 0.47271376514297947 0.47271376514297947 0.0 0.0 0.6622208999947843 0.7493086677799063
75 41.55002066241405 22.637384615288944 0.22020358466947737 1.4181412954289372 0.47271376514297947 0.47271376514297947 0.0 0.0 0.6669694181073614 0.7450850926636016
76 7.67075163229448 51.20384304192482 10.264671455145942 1.4323938523969613 0.4774646174656525 0.4774646174656525 0.0 0.0 0.4849872773235938 0.8745212066235144
77 48.934626956648366 54.147243571413476 26.37003094403633 1.4323938523969613 0.4774646174656525 0.4774646174656525 0.0 -0.0 0.724549744492829 0.6892225096116464
78 52.83190807696786 22.8304860320505 57.873499440144556 1.446789649943882 0.4822632166479607 0.4822632166479607 0.0 0.0 0.646327957303847 0.7630597431442944
79 15.772553551076683 2.2118442061491304 5.914023545571335 1.446789649943882 0.4822632166479607 0.4822632166479607 0.0 0.0 0.4210348644808628 0.9070444547493698
80 15.675698974507597 52.51251831024105 32.34394905885804 1.4613301276614623 0.48711004255382007 0.48711004255382007 0.0 0.0 0.5786941501693628 0.8155446527074768
81 9.720062163938312 30.4241609102787 37.54434629650059 1.4613301276614623 0.48711004255382007 0.48711004255382007 0.0 0.0 0.683142879342022 0.730284743373632
82 51.48177122928857 54.89449404107311 45.51579773786721 1.4760167396095918 0.492005579869864 0.492005579869864 0.0 0.0 0.3480344086077516 0.937481760049257
83 21.55140448143113 17.79986878595004 57.71385016254227 1.4760167396095918 0.492005579869864 0.492005579869864 0.0 -0.0 0.8280938516825816 0.560589486884571
84 1.6628669975673955 11.907144438582264 57.50395628240543 1.4908509544616966 0.49695031815389956 0.49695031815389956 0.0 -0.0 0.8521868438699086 0.5232375972109076
85 59.24101487356826 41.28800911640328 4.9373872767539995 1.4908509544616966 0.49695031815389956 0.49695031815389956 0.0 0.0 0.2683204071818837 0.9633297250109892
86 0.3706046608949701 24.92110936932685 2.8222571840345503 1.5058342556516275 0.5019447518838765 0.5019447518838765 0.0 0.0 0.5717525694490604 0.8204261083902665
87 56.09777624773964 46.981365189251136 45.84974781021959 1.5058342556516275 0.5019447518838765 0.5019447518838765 0.0 -0.0 0.7407334016199733 0.6717990977401677
88 17.396015276191847 28.87230065701725 1.4037592225588804 1.5209681415219904 0.5069893805073302 0.5069893805073302 0.0 0.0 0.6524446383875427 0.7578363898885753
89 19.056576292841342 8.925962858212065 60.28863960708916 1.5209681415219904 0.5069893805073302 0.5069893805073302 0.0 0.0 0.3815125934194192 0.9243636411404275
90 38.70579267703885 49.64378811736586 37.02902669776931 1.5362541254739788 0.5120847084913278 0.5120847084913278 0.0 -0.0 0.7664413141092511 0.642314340511314
91 2.84954166528045 25.420292462465046 33.56301009774535 1.5362541254739788 0.5120847084913278 0.5120847084913278 0.0 -0.0 0.7164030651197486 0.6976866404676452
92 30.730592757487855 54.18005943087017 37.07608388693741 1.5516937361187393 0.517231245372913 0.517231245372913 0.0 0.0 0.3159382626609752 0.9487797500931208
93 18.414321314073035 19.766278423053755 18.393460750917704 1.5516937361187393 0.517231245372913 0.517231245372913 0.0 -0.0 0.807675111463051 0.5896277760783901
94 27.644451773326228 18.17042572625251 59.72159362467376 1.5672885174301894 0.5224295058100611 0.5224295058100611 0.0 0.0 0.5856043209472178 0.8105970511221638
95 32.882320253399115 42.55128725633733 58.804391186837854 1.5672885174301894 0.5224295058100611 0.5224295058100611 0.0 -0.0 0.8283891439806925 0.5601530381377355
96 27.55098123178889 35.2281143993341 36.87327987733214 1.5830400288994593 0.5276800096331511 0.5276800096331511 0.0 0.0 0.6380161188650698 0.7700230074928626
97 26.929470970271126 45.20290630310004 12.18059328592943 1.5830400288994593 0.5276800096331511 0.5276800096331511 0.0 0.0 0.5652655734899162 0.8249089837231233
98 18.02836920960797 11.069113257532612 23.535869571230812 1.5989498456908249 0.5329832818969414 0.5329832818969414 0.0 -0.0 0.9884337224668884 0.15165347437579585
99 52.46295777665295 28.467043161080124 60.19168653212978 1.5989498456908249 0.5329832818969414 0.5329832818969414 0.0 0.0 0.644584962479319 0.7645326848117973
100 41.13626799356767 37.502066152657505 44.24104494606893 1.6150195587992167 0.5383398529330727 0.5383398529330727 0.0 -0.0 0.7665764345255346 0.6421530736748979
101 28.906297771854245 49.90562737665136 3.991286550323135 1.6150195587992167 0.5383398529330727 0.5383398529330727 0.0 -0.0 0.7486465484609144 0.6629693397718779
102 58.03422160595278 30.174059870513066 29.56252873431128 1.6312507752093546 0.5437502584031173 0.5437502584031173 0.0 -0.0 0.764238184631255 0.644934102952793
103 32.704146925338264 18.647953433346185 31.387531440549267 1.6312507752093546 0.5437502584031173 0.5437502584031173 0.0 -0.0 0.7262700822056904 0.6874094614514261
104 13.037948042792305 36.76865249343551 20.153309663796488 1.6476451180563827 0.5492150393521273 0.5492150393521273 0.0 0.0 0.6864264585310771 0.7271992278794606
105 0.6097653497996662 49.590238820276184 14.90133633055552 1.6476451180563827 0.5492150393521273 0.5492150393521273 0.0 -0.0 0.8498704758576332 0.5269916263713497
106 58.89789459527462 50.64593701506516 43.52061612100063 1.664204226788265 0.5547347422627555 0.5547347422627555 0.0 -0.0 0.793590538753224 0.6084521811953406
107 41.42280237480679 43.458364254529585 25.920680533842027 1.664204226788265 0.5547347422627555 0.5547347422627555 0.0 -0.0 0.8299364941277125 0.5578578812878792
108 57.98865570461612 29.296335278020162 41.448884016657146 1.6809297573296613 0.5603099191098893 0.5603099191098893 0.0 -0.0 0.7596155095013813 0.650372414640225
109 41.21476378671886 30.0302501181174 42.857156184714505 1.6809297573296613 0.5603099191098893 0.5603099191098893 0.0 -0.0 0.746179639226726 0.6657446552571586
110 28.488216375222304 58.773153927424325 48.75928516952254 1.6978233822475735 0.5659411274158594 0.5659411274158594 0.0 -0.0 0.7434755474029917 0.6687631198068729
111 35.95540775040283 45.8867506289878 2.03563580839315 1.6978233822475735 0.5659411274158594 0.5659411274158594 0.0 -0.0 0.7635489887521677 0.6457499065238353
112 45.35060008753447 43.285419042607465 8.72296564739603 1.7148867909185739 0.5716289303061894 0.5716289303061894 0.0 -0.0 0.925703395166632 0.3782502137170186
113 57.49724071252592 36.76602913007329 27.525936995631277 1.7148867909185739 0.5716289303061894 0.5716289303061894 0.0 -0.0 0.7476030998596368 0.6641457709571461
114 11.999396469198427 43.2904712884478 31.31278897052499 1.732121689697732 0.5773738965659111 0.5773738965659111 0.0 -0.0 0.7095009508808979 0.7047044775642494
115 49.61334766772988 53.44272092841922 29.496579049248496 1.732121689697732 0.5773738965659111 0.5773738965659111 0.0 0.0 0.692332939305712 0.7215782016887105
116 14.121297322497401 23.49714391038178 56.45772442361865 1.7495298020893073 0.5831766006964376 0.5831766006964376 0.0 0.0 0.4838188577050026 0.8751681626573412
117 32.74127409430301 57.905970396256535 11.47321587977116 1.7495298020893073 0.5831766006964376 0.5831766006964376 0.0 0.0 0.4072390243389004 0.9133216175343166
118 34.094338491328855 58.150352666058076 8.49998582593598 1.7671128689190347 0.5890376229730132 0.5890376229730132 0.0 -0.0 0.9854258972554679 0.17010526452245991
119 30.10803996353507 0.10516641281932948 59.718364223404954 1.7671128689190347 0.5890376229730132 0.5890376229730132 0.0 0.0 0.693566054094668 0.720393037589587
120 8.732194772426103 35.03223334830064 57.49988963611314 1.7848726485082536 0.5949575495027528 0.5949575495027528 0.0 -0.0 0.8546373086497397 0.5192254526349123
121 13.338551366781974 38.28953953342168 4.644390314739955 1.7848726485082536 0.5949575495027528 0.5949575495027528 0.0 -0.0 0.738138054050796 0.6746496966293722
122 36.020447591725095 13.954127070535007 55.792589661150316 1.8028109168497322 0.6009369722832423 0.6009369722832423 0.0 0.0 0.30497028615780525 0.9523618663936657
123 0.9699162222693012 28.812758511178515 7.534605810618691 1.8028109168497322 0.6009369722832423 0.6009369722832423 0.0 -0.0 0.8240326158671573 0.5665423620411186
124 46.14820508786019 22.644232618115712 55.843086293530874 1.8209294677852284 0.6069764892617426 0.6069764892617426 0.0 -0.0 0.7351480847541838 0.6779065521753388
125 2.602223925046245 19.16673093983203 7.6230503610809945 1.8209294677852284 0.6069764892617426 0.6069764892617426 0.0 0.0 0.6354145425399089 0.7721711980699606
126 17.208174074638354 2.901923465932102 23.573767026296245 1.8392301131849533 0.6130767043949844 0.6130767043949844 0.0 -0.0 0.9631928649301144 0.2688112812880415
127 58.88168051022964 38.082318976712564 40.982253493941826 1.8392301131849533 0.6130767043949844 0.6130767043949844 0.0 0.0 0.6645731125154195 0.7472232451694524
128 23.383045093243027 8.999959558384596 37.228492604424076 1.8577146831287 0.6192382277095653 0.6192382277095653 0.0 -0.0 0.837305869343264 0.5467347447925007
129 46.979856247895555 3.2485175724324886 44.88492852809024 1.8577146831287 0.6192382277095653 0.6192382277095653 0.0 0.0 0.6718759690179156 0.7406636768846148
130 50.08764791322205 40.28443235762759 20.58697398508651 1.8763850260888493 0.6254616753629499 0.6254616753629499 0.0 -0.0 0.8172568989423515 0.5762735124323614
131 44.83556738542478 41.255302177551506 34.01387075017708 1.8763850260888493 0.6254616753629499 0.6254616753629499 0.0 0.0 0.5650588956672867 0.8250505708302167
132 14.553511731280357 28.744213667313765 44.76322310586124 1.8952430091152743 0.6317476697050918 0.6317476697050918 0.0 0.0 0.5632303093681869 0.8262999568008076
133 41.415146709464494 8.737779955267388 16.886177457096338 1.8952430091152743 0.6317476697050918 0.6317476697050918 0.0 0.0 0.7047758212396541 0.7094300823872436
134 23.845173347609283 16.077313638050022 39.9121673524041 1.9142905180219831 0.6380968393406613 0.6380968393406613 0.0 -0.0 0.7457546235329385 0.6662207152882933
135 47.09515342930294 15.800240989961274 38.1713226675686 1.9142905180219831 0.6380968393406613 0.6380968393406613 0.0 0.0 0.5807371118896761 0.8140911539097067
136 55.56347309106408 37.470851380463486 40.95572245624239 1.9335294575757476 0.6445098191919139 0.6445098191919139 0.0 -0.0 0.7765636880913803 0.6300387593933514
137 4.648338098343837 48.04254069230811 12.443812983682339 1.9335294575757476 0.6445098191919139 0.6445098191919139 0.0 -0.0 0.9207785641385271 0.39008567754147583
138 34.40396851929341 51.13991203443647 50.351150611361284 1.9529617516865407 0.6509872505621802 0.6509872505621802 0.0 0.0 0.5933031767685688 0.8049790931672228
139 57.62652307588074 19.94979426189042 51.92621783274213 1.9529617516865407 0.6509872505621802 0.6509872505621802 0.0 0.0 0.36293328461656904 0.9318151270061183
140 35.80094048822626 1.429011815896346 54.095543379636176 1.9725893435999793 0.6575297811999927 0.6575297811999927 0.0 0.0 0.5657838974393875 0.8245535649054563
141 51.35955939763029 2.188797328109485 49.62288619302066 1.9725893435999793 0.6575297811999927 0.6575297811999927 0.0 0.0 0.5898626798291705 0.8075035720941112
142 4.442435158002971 30.947209422721603 50.63145126798373 1.9924141960916044 0.66413806536387 0.66413806536387 0.0 0.0 0.494526605223718 0.8691624915548904
143 44.908674803592824 30.12625198135877 7.61764569867384 1.9924141960916044 0.66413806536387 0.66413806536387 0.0 0.0 0.6621201748514545 0.7493976741721844
144 4.531506100288983 34.38205743010794 33.322337391413754 2.012438291663199 0.6708127638877305 0.6708127638877305 0.0 -0.0 0.8358120424685423 0.5490156916378287
145 2.018556278419438 54.957660694914004 29.25560102545895 2.012438291663199 0.6708127638877305 0.6708127638877305 0.0 -0.0 0.7380766977143534 0.6747168208152773
146 40.40694798526587 2.494348800940398 48.2969490305533 2.032663632740993 0.6775545442469981 0.6775545442469981 0.0 0.0 0.5600689403365469 0.8284460043179022
147 38.349346961661965 32.833391844768904 42.22586288837001 2.032663632740993 0.6775545442469981 0.6775545442469981 0.0 -0.0 0.8053653384335279 0.5927787712543771
148 0.14647240867804046 31.335751472470164 56.12138948814077 2.053092241875951 0.6843640806253152 0.6843640806253152 0.0 -0.0 0.9475491048281723 0.31961022189430877
149 25.013469211704468 52.655774176855026 30.168341114941583 2.053092241875951 0.6843640806253152 0.6843640806253152 0.0 -0.0 0.8855269061838191 0.46458809543994295
150 4.167732134896442 41.30901650385772 12.442173258410328 2.0737261619460083 0.6912420539820048 0.6912420539820048 0.0 -0.0 0.8997163709941051 0.43647502994466686
151 28.244396028177473 54.13602469164136 1.6986315682833015 2.0737261619460083 0.6912420539820048 0.6912420539820048 0.0 0.0 0.6949034215940625 0.7191030765174521
152 13.665432932170773 7.864132257369235 12.069294627474196 2.094567456360373 0.698189152120127 0.698189152120127 0.0 0.0 0.6496096252583186 0.7602679361723385
153 3.8246895991994454 40.17415399592604 59.286364867719534 2.094567456360373 0.698189152120127 0.698189152120127 0.0 0.0 0.6980264017745981 0.7160720232110785
154 43.532864321071706 50.69588671384712 18.22632558647981 2.115618209265858 0.7052060697552858 0.7052060697552858 0.0 -0.0 0.9126309719920443 0.4087844284716046
155 18.5748039270417 27.07260309102993 14.911518207710568 2.115618209265858 0.7052060697552858 0.7052060697552858 0.0 0.0 0.34897032679986184 0.9371337743423815
156 60.52661539964586 3.231196452972039 2.9687392115679874 2.1368805257552923 0.7122935085850984 0.7122935085850984 0.0 0.0 0.6995675014656925 0.7145665195718649
157 28.873406919320516 6.633687527268388 42.21786175014546 2.1368805257552923 0.7122935085850984 0.7122935085850984 0.0 0.0 0.63565327495599 0.7719746848425306
158 50.80050254678958 8.006911629935393 25.426249916166178 2.1583565320780314 0.7194521773593463 0.7194521773593463 0.0 -0.0 0.7426985308561326 0.6696259345814963
159 5.194121706564164 14.871080715267276 24.211747451806346 2.1583565320780314 0.7194521773593463 0.7194521773593463 0.0 0.0 0.4891044501540252 0.8722252213961303
160 42.09197060515307 39.83090071458462 12.889943849513704 2.180048375852625 0.7266827919508744 0.7266827919508744 0.0 0.0 0.6466947184788655 0.7627489371290798
161 27.778489744481867 19.243212052524584 42.671151763399685 2.180048375852625 0.7266827919508744 0.7266827919508744 0.0 0.0 0.6377575578887067 0.7702371695496348
162 52.371176081609974 52.11063081247168 47.745840517728006 2.2019582262815116 0.7339860754271716 0.7339860754271716 0.0 0.0 0.6701572236966805 0.7422191694689361
163 44.88123808119562 17.96719066771773 40.3532589376769 2.2019582262815116 0.7339860754271716 0.7339860754271716 0.0 -0.0 0.7797338016261434 0.6261111711203069
164 22.12997187158367 30.162213618448128 27.79794290593464 2.2240882743679955 0.7413627581226648 0.7413627581226648 0.0 0.0 0.6966086930688543 0.7174512727293072
165 3.8946097214268 46.098088475242264 4.068857360557805 2.2240882743679955 0.7413627581226648 0.7413627581226648 0.0 -0.0 0.8994069955971553 0.43711217813153935
38_L -0.3048469956489086 22.642196848461797 31.35109058563259 1.093460094734012 0.3644866982446714 0.3644866982446714 0.0 0.0 0.5145463711011363 0.8574625542766586
45_T 44.241790072039976 -0.2887571144851293 6.317819055730853 1.1727448974772392 0.3909149658257456 0.3909149658257456 0.0 -0.0 0.8021859139948743 0.5970743332184094
47_B 36.320935586864024 61.18815644793408 32.63665344002947 1.1964359159158169 0.3988119719719391 0.3988119719719391 0.0 -0.0 0.8121614142020023 0.5834328044268712
67_B 58.80062190001294 61.96788255629522 1.3703310417388035 1.362535179873925 0.4541783932913078 0.4541783932913078 0.0 -0.0 0.7991221049958454 0.6011687461162707
75_Ba 41.55002066241405 22.637384615288944 61.120203584669476 1.4181412954289372 0.47271376514297947 0.47271376514297947 0.0 0.0 0.6669694181073614 0.7450850926636016
86_R 61.27060466089497 24.92110936932685 2.8222571840345503 1.5058342556516275 0.5019447518838765 0.5019447518838765 0.0 0.0 0.5717525694490604 0.8204261083902665
105_R 61.509765349799665 49.590238820276184 14.90133633055552 1.6476451180563827 0.5492150393521273 0.5492150393521273 0.0 -0.0 0.8498704758576332 0.5269916263713497
119_B 30.10803996353507 61.00516641281933 59.718364223404954 1.7671128689190347 0.5890376229730132 0.5890376229730132 0.0 0.0 0.693566054094668 0.720393037589587
140_B 35.80094048822626 62.329011815896344 54.095543379636176 1.9725893435999793 0.6575297811999927 0.6575297811999927 0.0 0.0 0.5657838974393875 0.8245535649054563
148_R 61.04647240867804 31.335751472470164 56.12138948814077 2.053092241875951 0.6843640806253152 0.6843640806253152 0.0 -0.0 0.9475491048281723 0.31961022189430877
156_L -0.3733846003541359 3.231196452972039 2.9687392115679874 2.1368805257552923 0.7122935085850984 0.7122935085850984 0.0 0.0 0.6995675014656925 0.7145665195718649
