ITEM: TIMESTEP
607
ITEM: NUMBER OF ATOMS
259
ITEM: BOX BOUNDS ff ff ff
0 60.9
60.9 0
60.9 0
ITEM: ATOMS id x y z AsphericalShapeX AsphericalShapeY AsphericalShapeZ OrientationX OrientationY OrientationZ OrientationW
1 45.210034699563735 48.37610593272766 22.642678271701694 4.291743732540005 1.4305812441800068 1.4305812441800068 0.0 -0.0 0.7863642711635499 0.6177630881150306
2 5.485045654627601 20.758165771862668 21.97871502104975 4.3348764741344485 1.4449588247114538 1.4449588247114538 0.0 -0.0 0.8896314041555925 0.4566792799549252
3 19.384068433395168 12.789947778690149 55.70917192443086 4.378442706988641 1.459480902329579 1.459480902329579 0.0 0.0 0.631512325711268 0.7753658378305981
4 17.147376794197697 40.33630559188311 45.08664830888879 4.422446787762401 1.4741489292541463 1.4741489292541463 0.0 0.0 0.5765741652112841 0.8170448164029381
5 41.41443415855762 31.40053266420794 20.646903186123165 4.466893116900276 1.4889643723000954 1.4889643723000954 0.0 -0.0 0.8873914294477543 0.4610167577677315
6 25.836365556281315 14.352427143999657 23.625186118761725 4.51178613907224 1.503928713024086 1.503928713024086 0.0 0.0 0.643710445538684 0.7652691437033046
7 20.544931466438968 57.73387625533467 37.01264572917951 4.557130343617927 1.5190434478726331 1.5190434478726331 0.0 -0.0 0.7603958793842515 0.6494598575858641
8 42.174619700568954 36.1281532527753 14.95828880366393 4.602930264995581 1.5343100883318914 1.5343100883318914 0.0 -0.0 0.7854601334426244 0.6189122545016335
9 52.04496891392866 4.894043022982207 52.55196940649905 4.649190483235617 1.5497301610785406 1.5497301610785406 0.0 -0.0 0.7176002965020949 0.6964551776389529
10 45.5899943773129 15.187005305564064 11.588042388147837 4.695915624398267 1.5653052081327599 1.5653052081327599 0.0 0.0 0.38534345666417513 0.9227732226317065
11 19.969481649373833 36.71570496632507 60.87750036682519 4.7431103610365986 1.5810367870122102 1.5810367870122102 0.0 0.0 0.49983922045674145 0.866118209999765
12 11.904653103417768 16.606311036270192 24.5916181000577 4.790779412663594 1.596926470887897 1.596926470887897 0.0 0.0 0.2746680171135514 0.9615391205639581
13 9.100614786195838 48.85523179588298 15.83475279719972 4.838927546224338 1.6129758487414352 1.6129758487414352 0.0 -0.0 0.7886508549344257 0.614841303924191
14 7.0910336417500135 27.17858966893118 24.129827224608217 4.887559576572028 1.6291865255239946 1.6291865255239946 0.0 -0.0 0.7750680292508737 0.6318777967559605
15 26.22538578847885 44.28855211719117 20.1204405032187 4.936680366950371 1.6455601223168268 1.6455601223168268 0.0 0.0 0.6340811782098568 0.7732664866913604
16 18.841309411050375 32.826422459734886 51.524050786392195 4.98629482947948 1.662098276493133 1.662098276493133 0.0 -0.0 0.7629176367612683 0.6464956918020424
17 19.093862264220764 26.00585619149401 34.83260207150121 5.03640792564663 1.6788026418821864 1.6788026418821864 0.0 0.0 0.6579222258448839 0.7530858813836
18 37.6419086778828 30.33267127172182 15.581630385610136 5.08702466680336 1.6956748889344486 1.6956748889344486 0.0 0.0 0.506211649243881 0.8624092799650234
19 15.89209306160281 10.307740048890384 38.71372743744521 5.138150114666037 1.7127167048886711 1.7127167048886711 0.0 0.0 0.6434542777811493 0.7654845474633303
20 30.659242522503583 51.41699024948312 35.49530051906032 5.1897893818219485 1.7299297939406746 1.7299297939406746 0.0 -0.0 0.7861857262579329 0.6179902942832407
21 46.00222484047992 16.108098653755818 44.41288728305191 5.241947632240877 1.7473158774136148 1.7473158774136148 0.0 0.0 0.6069811502172251 0.7947162281474907
22 20.447481310590362 14.141010073093195 30.157496288412222 5.294630081791339 1.764876693930435 1.764876693930435 0.0 -0.0 0.8910647246123514 0.45387625687131333
23 40.61215988428147 58.18272495267324 45.23345960454046 5.347841998762213 1.7826139995874395 1.7826139995874395 0.0 -0.0 0.7582829367961579 0.651925599868416
24 26.72951004943357 7.320736607960643 48.47527075419637 5.401588704389495 1.8005295681298394 1.8005295681298394 0.0 0.0 0.5255054740936084 0.8507902189715464
25 14.767325294786286 1.7762508231302714 51.64804147595555 5.455875573388689 1.8186251911295346 1.8186251911295346 0.0 0.0 0.6637035342538496 0.7479957343587923
26 2.6955316217672305 46.46753778397649 29.667906951367122 5.510708034491607 1.836902678163873 1.836902678163873 0.0 0.0 0.5361151400853296 0.8441448670526212
27 3.6497681460152522 31.134921608834034 31.40685020148833 5.566091570990318 1.8553638569967594 1.8553638569967594 0.0 -0.0 0.7297620279401082 0.6837012378054764
28 19.903632619175596 33.438219287963946 30.282265333444464 5.622031721284561 1.8740105737614903 1.8740105737614903 0.0 -0.0 0.9828164757017253 0.18458541407500267
29 45.39152423416976 32.14459725734986 30.232736186613494 5.6785340794359795 1.8928446931453422 1.8928446931453422 0.0 -0.0 0.8740853421614372 0.4857723897243679
30 19.68227082818667 59.4686870287154 27.593880663812705 5.7356042957274465 1.911868098575831 1.911868098575831 0.0 -0.0 0.8433777540022546 0.5373210995802349
31 59.249078057175964 42.942685112727055 32.553195123633316 5.793248077228107 1.9310826924094122 1.9310826924094122 0.0 0.0 0.6952778540174372 0.7187410560924617
32 55.33945040214072 37.21728811997428 33.109244700126865 5.851471188364344 1.9504903961214624 1.9504903961214624 0.0 0.0 0.6353234605105568 0.7722461398575527
33 28.580280811138955 26.48818096674092 24.84783406510815 5.91027945149562 1.9700931504985073 1.9700931504985073 0.0 0.0 0.6411270229476993 0.7674347792784871
34 20.313253949563304 21.904061560847126 21.006709698189198 5.969678747497178 1.9898929158324372 1.9898929158324372 0.0 -0.0 0.7453722743584635 0.6666484625480594
35 20.948346121361965 49.130892290553206 42.22753143900072 6.029675016348338 2.0098916721161464 2.0098916721161464 0.0 -0.0 0.7109313362059317 0.7032614273514853
36 42.13406479821292 5.529930646692254 60.630156769806256 6.090274257725851 2.030091419241995 2.030091419241995 0.0 -0.0 0.739632735620696 0.6730107104632479
37 25.288975091950174 52.76488497509697 22.4892139163914 6.151482531604528 2.050494177201524 2.050494177201524 0.0 0.0 0.5163603530767541 0.8563714064414165
38 16.48754762707844 16.862166085304054 17.086970810698997 6.213305958862467 2.0711019862874536 2.0711019862874536 0.0 0.0 0.5145463711011363 0.8574625542766586
39 8.688666165284038 36.9308919358895 23.491010863904723 6.275750721894043 2.0919169072980144 2.0919169072980144 0.0 0.0 0.5880831456971182 0.8088004783300898
40 59.82021568319194 20.360358302166397 14.659601809039446 6.3388230652277455 2.112941021742559 2.112941021742559 0.0 -0.0 0.8608342640850161 0.5088854191045453
41 12.041549027364056 21.078199626333827 31.341694720533667 6.402529296150193 2.1341764320500527 2.1341764320500527 0.0 0.0 0.5813114541301716 0.8136811373609846
42 12.44532171719386 2.325525527829393 38.7972693884418 6.466875785337688 2.1556252617792633 2.1556252617792633 0.0 0.0 0.6858728758951139 0.7277213739552836
43 59.046176120085555 40.16864953244295 41.42738918431857 6.531868967493026 2.1772896558309847 2.1772896558309847 0.0 -0.0 0.8971229945165649 0.4417808650333688
44 41.437763429542564 17.434288939081917 27.44470966832146 6.597515341988165 2.199171780662706 2.199171780662706 0.0 -0.0 0.7662793896249596 0.6425075073771507
45 45.11220314636662 51.219671406859675 43.23031280115915 6.6638214735156 2.221273824505163 2.221273824505163 0.0 -0.0 0.8021859139948743 0.5970743332184094
46 13.684055567844565 46.27389608940211 13.738203535674995 6.730793992743331 2.2435979975811473 2.2435979975811473 0.0 0.0 0.6689296931602822 0.7433256793683982
47 49.090094583368575 24.669805144378557 16.153705551338504 6.798439596979592 2.266146532326531 2.266146532326531 0.0 -0.0 0.8121614142020023 0.5834328044268712
48 0.008887320855755831 46.442954016368596 13.671140121360358 6.866765050840903 2.2889216836136352 2.2889216836136352 0.0 0.0 0.43861391052531945 0.8986756019241242
49 25.142890325231473 3.513103877445592 5.976522411879135 6.93577718692953 2.311925728976514 2.311925728976514 0.0 -0.0 0.7611420715427216 0.6485851886434459
50 26.120315410306578 18.886236652496756 59.811554859522396 7.005482906516787 2.3351609688389 2.3351609688389 0.0 0.0 0.5689873473401131 0.8223462765568174
51 47.04548972541451 23.575184307612226 39.66092518705907 7.075889180232591 2.3586297267441845 2.3586297267441845 0.0 -0.0 0.9816329176571261 0.1907794930592849
52 32.94252010329876 11.4706182598105 19.08555342550609 7.147003048763018 2.382334349587636 2.382334349587636 0.0 -0.0 0.8312938914163103 0.5558331279205367
53 8.85292150742836 59.39492150593646 7.122955208886717 7.2188316235539745 2.4062772078513763 2.4062772078513763 0.0 0.0 0.4937832216878833 0.8695850332081013
54 38.47237873559072 49.29016771380127 41.04603393260417 7.291382087523176 2.430460695841056 2.430460695841056 0.0 -0.0 0.7425013715714329 0.6698445440656666
55 25.44623614494164 43.538351489136986 15.052730458920571 7.291382087523176 2.430460695841056 2.430460695841056 0.0 -0.0 0.899222239431846 0.4374921303419936
56 40.436371828131755 8.795360275931635 19.115532586317915 7.364661695777331 2.454887231925782 2.454887231925782 0.0 0.0 0.591041689671776 0.8066410112744902
57 53.90786623026344 59.870222300454195 56.47358099205521 7.364661695777331 2.454887231925782 2.454887231925782 0.0 0.0 0.6906372933410847 0.7232013060320761
58 27.54021317712979 35.90457416792869 34.4075526486973 7.4386777763382375 2.479559258779409 2.479559258779409 0.0 -0.0 0.9778925487455288 0.20910801779935065
59 36.72638446973577 56.33393617331362 20.8147544631111 7.4386777763382375 2.479559258779409 2.479559258779409 0.0 -0.0 0.8334397726994561 0.5526103014626843
60 52.223231210128404 27.385985525545504 53.270391119634525 7.513437730875892 2.5044792436252554 2.5044792436252554 0.0 -0.0 0.8251393648538317 0.5649292243888745
61 7.43466399483143 8.134988476735646 41.04462461289731 7.513437730875892 2.5044792436252554 2.5044792436252554 0.0 -0.0 0.8342848482439009 0.5513336485202505
62 18.27673817528245 7.1667628570691715 42.04622589288172 7.588949035447635 2.529649678482505 2.529649678482505 0.0 0.0 0.6993489688984815 0.7147803996337831
63 35.40350519920502 3.4241219189430945 50.6523288371109 7.588949035447635 2.529649678482505 2.529649678482505 0.0 0.0 0.6638694557235675 0.747848477806363
64 41.079272744129625 33.77421506911232 45.86126301483411 7.6652192412471365 2.5550730804157036 2.5550730804157036 0.0 0.0 0.5469534661185369 0.8371630103515794
65 17.127527391522573 27.61964359346286 7.1460505707405595 7.6652192412471365 2.5550730804157036 2.5550730804157036 0.0 0.0 0.534266604389083 0.8453160328744268
66 23.96100747048329 48.858308908166784 31.448291542016356 7.742255975358257 2.5807519917861286 2.5807519917861286 0.0 0.0 0.49259387534365895 0.8702593142126752
67 53.303558298959445 13.413777222238274 10.91659291187661 7.742255975358257 2.5807519917861286 2.5807519917861286 0.0 -0.0 0.7991221049958454 0.6011687461162707
68 38.309088626774944 18.701328638430855 22.4926603012173 7.820066941519154 2.606688980506395 2.606688980506395 0.0 -0.0 0.8113628171424923 0.5845428803420658
69 33.99956292986814 11.099974744672087 57.588151262727585 7.820066941519154 2.606688980506395 2.606688980506395 0.0 0.0 0.69974083585519 0.7143967823532522
70 12.554471737905375 58.772099482614315 17.057701181510943 7.898659920890796 2.632886640296933 2.632886640296933 0.0 -0.0 0.9226100212719841 0.3857340387475665
71 11.141032418258106 0.18233380153010614 23.967442080606695 7.898659920890796 2.632886640296933 2.632886640296933 0.0 -0.0 0.8908476943010929 0.4543020862360491
72 8.843159240904356 42.929053305779505 9.175884617131462 7.978042772836676 2.659347590945595 2.659347590945595 0.0 -0.0 0.9180976465577227 0.39635427509384946
73 38.58699553607869 35.93875023532975 27.455568702263637 7.978042772836676 2.659347590945595 2.659347590945595 0.0 0.0 0.6852526383261238 0.7283054453092375
74 37.40319450966328 17.483338078426346 13.705469047593118 8.058223435708415 2.6860744785694752 2.6860744785694752 0.0 0.0 0.6622208999947843 0.7493086677799063
75 49.87059032483904 33.57099951787523 47.420177867772686 8.058223435708415 2.6860744785694752 2.6860744785694752 0.0 0.0 0.6669694181073614 0.7450850926636016
76 59.831722952929944 15.256083233256275 30.82317217370348 8.139209927638744 2.7130699758796375 2.7130699758796375 0.0 0.0 0.4849872773235938 0.8745212066235144
77 12.22426289988507 44.55726400081107 19.37339873410494 8.139209927638744 2.7130699758796375 2.7130699758796375 0.0 -0.0 0.724549744492829 0.6892225096116464
78 1.555340753043642 10.385587201252703 12.877793635357348 8.22101034734469 2.740336782448225 2.740336782448225 0.0 0.0 0.646327957303847 0.7630597431442944
79 2.912220505729896 23.067318788039817 27.35556665499285 8.22101034734469 2.740336782448225 2.740336782448225 0.0 0.0 0.4210348644808628 0.9070444547493698
80 2.962293798032963 10.273231332116376 22.553215926589903 8.303632874936277 2.767877624978731 2.767877624978731 0.0 0.0 0.5786941501693628 0.8155446527074768
81 52.008817985887134 52.46627897625564 27.475386780775867 8.303632874936277 2.767877624978731 2.767877624978731 0.0 0.0 0.683142879342022 0.730284743373632
82 9.774715474728458 6.5912032422350695 5.879565806291517 8.38708577273492 2.7956952575782656 2.7956952575782656 0.0 0.0 0.3480344086077516 0.937481760049257
83 13.93987161493789 42.94851191538185 1.8588996698963172 8.38708577273492 2.7956952575782656 2.7956952575782656 0.0 -0.0 0.8280938516825816 0.560589486884571
84 34.39306061330175 25.41333128224918 5.731666050499069 8.471377386100025 2.8237924620333796 2.8237924620333796 0.0 -0.0 0.8521868438699086 0.5232375972109076
85 18.469758822237676 43.525964873282014 28.21579268151512 8.471377386100025 2.8237924620333796 2.8237924620333796 0.0 0.0 0.2683204071818837 0.9633297250109892
86 7.860698498489788 60.40669709589101 58.068573980880835 8.556516144263382 2.8521720480877883 2.8521720480877883 0.0 0.0 0.5717525694490604 0.8204261083902665
87 8.512380784804918 54.54832658578097 45.73730600759736 8.556516144263382 2.8521720480877883 2.8521720480877883 0.0 -0.0 0.7407334016199733 0.6717990977401677
88 34.11898641694301 45.906690389429 56.07730765760897 8.642510561171719 2.8808368537238693 2.8808368537238693 0.0 0.0 0.6524446383875427 0.7578363898885753
89 37.17112765129648 24.191106287708973 47.41713744047179 8.642510561171719 2.8808368537238693 2.8808368537238693 0.0 0.0 0.3815125934194192 0.9243636411404275
90 20.326822041085897 20.661306633263926 50.590078042266 8.72936923633824 2.9097897454460493 2.9097897454460493 0.0 -0.0 0.7664413141092511 0.642314340511314
91 30.820427879896435 60.54593821448204 28.45614476847082 8.72936923633824 2.9097897454460493 2.9097897454460493 0.0 -0.0 0.7164030651197486 0.6976866404676452
92 50.64293802072756 14.529129858148675 34.53365835137577 8.817100855702723 2.939033618567555 2.939033618567555 0.0 0.0 0.3159382626609752 0.9487797500931208
93 17.242604422959996 36.66032710569011 37.90288761118625 8.817100855702723 2.939033618567555 2.939033618567555 0.0 -0.0 0.807675111463051 0.5896277760783901
94 51.22129094020955 17.16039675892891 47.45281892796756 8.90571419250043 2.968571397500155 2.968571397500155 0.0 0.0 0.5856043209472178 0.8105970511221638
95 39.497876068232635 60.016124808894055 54.88004945843855 8.90571419250043 2.968571397500155 2.968571397500155 0.0 -0.0 0.8283891439806925 0.5601530381377355
96 44.60825398867817 9.190085060333594 40.712686337860816 8.995218108138946 2.9984060360463545 2.9984060360463545 0.0 0.0 0.6380161188650698 0.7700230074928626
97 26.718589368654193 59.29671729496425 19.17231409729426 8.995218108138946 2.9984060360463545 2.9984060360463545 0.0 0.0 0.5652655734899162 0.8249089837231233
98 18.087021282873415 22.66665647225538 40.38000836739393 9.085621553084296 3.0285405176947258 3.0285405176947258 0.0 -0.0 0.9884337224668884 0.15165347437579585
99 48.060153926913955 41.9371282753293 7.063813238779105 9.085621553084296 3.0285405176947258 3.0285405176947258 0.0 0.0 0.644584962479319 0.7645326848117973
100 27.768991408906803 30.69928216903945 56.819705913036174 9.176933567756311 3.05897785591881 3.05897785591881 0.0 -0.0 0.7665764345255346 0.6421530736748979
101 15.442837217083301 25.35423685297881 1.6815609798809612 9.176933567756311 3.05897785591881 3.05897785591881 0.0 -0.0 0.7486465484609144 0.6629693397718779
102 40.37846006205727 43.07066175204696 10.772091812487206 9.269163283432523 3.0897210944775537 3.0897210944775537 0.0 -0.0 0.764238184631255 0.644934102952793
103 26.425252403200417 44.092060383742016 0.657242535101781 9.269163283432523 3.0897210944775537 3.0897210944775537 0.0 -0.0 0.7262700822056904 0.6874094614514261
104 50.302644936741984 59.59180388009889 50.91099033379355 9.362319923161607 3.120773307720473 3.120773307720473 0.0 0.0 0.6864264585310771 0.7271992278794606
105 22.77194103941677 51.90237677272082 10.62118506563811 9.362319923161607 3.120773307720473 3.120773307720473 0.0 -0.0 0.8498704758576332 0.5269916263713497
106 12.847836771140292 13.664678641707084 48.465775554679425 9.456412802684664 3.1521376008949162 3.1521376008949162 0.0 -0.0 0.793590538753224 0.6084521811953406
107 40.32325129292897 48.94251312338569 18.703676963553583 9.456412802684664 3.1521376008949162 3.1521376008949162 0.0 -0.0 0.8299364941277125 0.5578578812878792
108 55.12467257068134 42.46467457865403 58.53319272390736 9.551451331368554 3.1838171104561526 3.1838171104561526 0.0 -0.0 0.7596155095013813 0.650372414640225
109 0.0351131836303864 39.10492411913318 3.4777392673806733 9.551451331368554 3.1838171104561526 3.1838171104561526 0.0 -0.0 0.746179639226726 0.6657446552571586
110 45.1008596305346 15.162290236005216 51.82258508507947 9.647445013145074 3.21581500438166 3.21581500438166 0.0 -0.0 0.7434755474029917 0.6687631198068729
111 33.350562537910555 42.6438644327419 26.837411062016066 9.647445013145074 3.21581500438166 3.21581500438166 0.0 -0.0 0.7635489887521677 0.6457499065238353
112 51.07503079249747 0.19188694181156074 15.885828488038378 9.744403447462469 3.2481344824875515 3.2481344824875515 0.0 -0.0 0.925703395166632 0.3782502137170186
113 19.18583275208668 8.976236304081985 11.98704665889627 9.744403447462469 3.2481344824875515 3.2481344824875515 0.0 -0.0 0.7476030998596368 0.6641457709571461
114 6.257028423453932 0.3724896837087416 33.08204454991338 9.84233633024515 3.2807787767483503 3.2807787767483503 0.0 -0.0 0.7095009508808979 0.7047044775642494
115 27.975391882165813 13.158932556318687 52.61552725453417 9.84233633024515 3.2807787767483503 3.2807787767483503 0.0 0.0 0.692332939305712 0.7215782016887105
116 13.220858650062516 30.067729517085294 54.757886350074834 9.941253454862638 3.3137511516208873 3.3137511516208873 0.0 0.0 0.4838188577050026 0.8751681626573412
117 51.13155712014475 38.35900761148812 27.77275672059293 9.941253454862638 3.3137511516208873 3.3137511516208873 0.0 0.0 0.4072390243389004 0.9133216175343166
118 49.24502879474702 16.86142819838123 60.71881441641364 10.04116471311 3.3470549043700015 3.3470549043700015 0.0 -0.0 0.9854258972554679 0.17010526452245991
119 38.436647563651654 29.448679235950106 59.89224752662253 10.04116471311 3.3470549043700015 3.3470549043700015 0.0 0.0 0.693566054094668 0.720393037589587
120 28.79808861564298 27.287825360721968 30.494082424053165 10.142080096196516 3.3806933653988023 3.3806933653988023 0.0 -0.0 0.8546373086497397 0.5192254526349123
121 1.242688301087468 39.12078569173084 57.50504807463429 10.142080096196516 3.3806933653988023 3.3806933653988023 0.0 -0.0 0.738138054050796 0.6746496966293722
122 58.229840723318446 27.603046818803772 60.799297993370516 10.244009695744257 3.4146698985814328 3.4146698985814328 0.0 0.0 0.30497028615780525 0.9523618663936657
123 42.04127739558592 39.753847065801395 53.450445500940006 10.244009695744257 3.4146698985814328 3.4146698985814328 0.0 -0.0 0.8240326158671573 0.5665423620411186
124 6.883350448264399 46.631110819136836 0.7913446952413075 10.346963704798414 3.4489879015994642 3.4489879015994642 0.0 -0.0 0.7351480847541838 0.6779065521753388
125 60.271059869824605 59.22913269546358 51.62061393411285 10.346963704798414 3.4489879015994642 3.4489879015994642 0.0 0.0 0.6354145425399089 0.7721711980699606
126 33.48357583905892 1.308894350924942 43.660230588514814 10.450952418845448 3.4836508062818377 3.4836508062818377 0.0 -0.0 0.9631928649301144 0.2688112812880415
127 57.52751556659314 22.348122454546598 41.73911706893397 10.450952418845448 3.4836508062818377 3.4836508062818377 0.0 0.0 0.6645731125154195 0.7472232451694524
128 8.928057344008945 47.03392602749602 53.29621144275133 10.555986236843372 3.518662078947789 3.518662078947789 0.0 -0.0 0.837305869343264 0.5467347447925007
129 33.443885069742244 2.597416291251008 12.257160355608901 10.555986236843372 3.518662078947789 3.518662078947789 0.0 0.0 0.6718759690179156 0.7406636768846148
130 32.43262279948707 42.35583688865242 14.565587579383742 10.662075662261904 3.554025220753957 3.554025220753957 0.0 -0.0 0.8172568989423515 0.5762735124323614
131 3.1565137066555806 27.489756057480506 40.42377282978613 10.662075662261904 3.554025220753957 3.554025220753957 0.0 0.0 0.5650588956672867 0.8250505708302167
132 26.444326055550583 59.294461676924236 54.08512621491765 10.769231304131683 3.5897437680439137 3.5897437680439137 0.0 0.0 0.5632303093681869 0.8262999568008076
133 8.94802105379973 40.83702638461387 36.27522538515691 10.769231304131683 3.5897437680439137 3.5897437680439137 0.0 0.0 0.7047758212396541 0.7094300823872436
134 0.2095102099029301 34.60105289805474 49.63772394500038 10.877463878106159 3.6258212927020432 3.6258212927020432 0.0 -0.0 0.7457546235329385 0.6662207152882933
135 41.02977574986479 48.95549501008804 60.667545079987555 10.877463878106159 3.6258212927020432 3.6258212927020432 0.0 0.0 0.5807371118896761 0.8140911539097067
136 20.00625527819026 5.757490220643996 1.0286500145541557 10.986784207533095 3.662261402511048 3.662261402511048 0.0 -0.0 0.7765636880913803 0.6300387593933514
137 0.27084879127473727 45.34356532603979 22.552243359528262 10.986784207533095 3.662261402511048 3.662261402511048 0.0 -0.0 0.9207785641385271 0.39008567754147583
138 51.40487255625135 16.13252150215117 26.45677409909611 11.097203224536518 3.69906774151214 3.69906774151214 0.0 0.0 0.5933031767685688 0.8049790931672228
139 8.066657392989923 12.344791334610527 60.17806855960797 11.097203224536518 3.69906774151214 3.69906774151214 0.0 0.0 0.36293328461656904 0.9318151270061183
140 59.485772047185236 59.28331805779597 42.48872707073633 11.208731971110272 3.736243990370084 3.736243990370084 0.0 0.0 0.5657838974393875 0.8245535649054563
141 20.792984010152196 43.977617795882495 55.63174859599525 11.208731971110272 3.736243990370084 3.736243990370084 0.0 0.0 0.5898626798291705 0.8075035720941112
142 5.601607804429744 22.08717441916132 7.522358167879832 11.321381600221365 3.7737938667405144 3.7737938667405144 0.0 0.0 0.494526605223718 0.8691624915548904
143 30.861772445031477 60.59411845479977 60.65409182740023 11.321381600221365 3.7737938667405144 3.7737938667405144 0.0 0.0 0.6621201748514545 0.7493976741721844
144 10.70685600662246 27.42772612753944 46.834704278555996 11.435163376927242 3.8117211256424754 3.8117211256424754 0.0 -0.0 0.8358120424685423 0.5490156916378287
145 8.538123633211764 26.14873672518898 16.50337798467124 11.435163376927242 3.8117211256424754 3.8117211256424754 0.0 -0.0 0.7380766977143534 0.6747168208152773
146 20.563611222439174 56.630487608822364 47.523498078819046 11.550088679500078 3.850029559833415 3.850029559833415 0.0 0.0 0.5600689403365469 0.8284460043179022
147 38.60206036780742 22.023241055995285 34.31153726420912 11.550088679500078 3.850029559833415 3.850029559833415 0.0 -0.0 0.8053653384335279 0.5927787712543771
148 0.6872444672622413 20.04388859736684 53.52297319064694 11.666169000566178 3.888723000188753 3.888723000188753 0.0 -0.0 0.9475491048281723 0.31961022189430877
149 44.088660837454796 55.87821954898774 26.101170325043533 11.666169000566178 3.888723000188753 3.888723000188753 0.0 -0.0 0.8855269061838191 0.46458809543994295
150 17.557584464874957 31.04314771375671 21.957720091085672 11.78341594825404 3.927805316084682 3.927805316084682 0.0 -0.0 0.8997163709941051 0.43647502994466686
151 32.863904737080986 29.378136631947704 39.49594098754701 11.78341594825404 3.927805316084682 3.927805316084682 0.0 0.0 0.6949034215940625 0.7191030765174521
152 59.24274561860885 4.972818148191282 60.82314300244896 11.90184124735631 3.967280415785415 3.967280415785415 0.0 0.0 0.6496096252583186 0.7602679361723385
153 32.122993579098456 40.69374241680609 5.095697581204432 11.90184124735631 3.967280415785415 3.967280415785415 0.0 0.0 0.6980264017745981 0.7160720232110785
154 38.93468393378182 15.439709709809343 5.792189735446235 12.021456740501323 4.007152246833739 4.007152246833739 0.0 -0.0 0.9126309719920443 0.4087844284716046
155 22.713713577655234 33.65707761325417 8.028958445275693 12.021456740501323 4.007152246833739 4.007152246833739 0.0 0.0 0.34897032679986184 0.9371337743423815
156 32.41831370104595 44.22824292817527 49.063645150589174 12.142274389338585 4.047424796446107 4.047424796446107 0.0 0.0 0.6995675014656925 0.7145665195718649
157 26.13906812546145 29.91154058046383 46.77904089396085 12.142274389338585 4.047424796446107 4.047424796446107 0.0 0.0 0.63565327495599 0.7719746848425306
158 51.34142896203933 59.47585680302236 37.2105195188612 12.264306275733295 4.088102091911068 4.088102091911068 0.0 -0.0 0.7426985308561326 0.6696259345814963
159 23.894696758847125 22.932384765956492 13.208550812507415 12.264306275733295 4.088102091911068 4.088102091911068 0.0 0.0 0.4891044501540252 0.8722252213961303
160 47.638222073180174 0.8346364803774525 4.079025376791199 12.387564602975774 4.129188200991953 4.129188200991953 0.0 0.0 0.6466947184788655 0.7627489371290798
161 29.82753556765353 9.743018236695578 36.4310045107005 12.387564602975774 4.129188200991953 4.129188200991953 0.0 0.0 0.6377575578887067 0.7702371695496348
162 60.12409331021814 59.2526247979998 8.82616748816638 12.512061697001393 4.170687232333769 4.170687232333769 0.0 0.0 0.6701572236966805 0.7422191694689361
163 40.03451975904549 4.603112750186036 32.80452144090401 12.512061697001393 4.170687232333769 4.170687232333769 0.0 -0.0 0.7797338016261434 0.6261111711203069
164 42.940806750492754 45.8128037091596 33.859750157531614 12.637810007623733 4.212603335874578 4.212603335874578 0.0 0.0 0.6966086930688543 0.7174512727293072
165 59.65993570017757 30.842490413610207 16.715756461113195 12.637810007623733 4.212603335874578 4.212603335874578 0.0 -0.0 0.8994069955971553 0.43711217813153935
7_T 20.544931466438968 -3.1661237446653274 37.01264572917951 4.557130343617927 1.5190434478726331 1.5190434478726331 0.0 -0.0 0.7603958793842515 0.6494598575858641
11_F 19.969481649373833 36.71570496632507 -0.022499633174810185 4.7431103610365986 1.5810367870122102 1.5810367870122102 0.0 0.0 0.49983922045674145 0.866118209999765
23_T 40.61215988428147 -2.7172750473267584 45.23345960454046 5.347841998762213 1.7826139995874395 1.7826139995874395 0.0 -0.0 0.7582829367961579 0.651925599868416
25_B 14.767325294786286 62.67625082313027 51.64804147595555 5.455875573388689 1.8186251911295346 1.8186251911295346 0.0 0.0 0.6637035342538496 0.7479957343587923
26_R 63.59553162176723 46.46753778397649 29.667906951367122 5.510708034491607 1.836902678163873 1.836902678163873 0.0 0.0 0.5361151400853296 0.8441448670526212
30_T 19.68227082818667 -1.4313129712845978 27.593880663812705 5.7356042957274465 1.911868098575831 1.911868098575831 0.0 -0.0 0.8433777540022546 0.5373210995802349
31_L -1.6509219428240343 42.942685112727055 32.553195123633316 5.793248077228107 1.9310826924094122 1.9310826924094122 0.0 0.0 0.6952778540174372 0.7187410560924617
36_BB 42.13406479821292 66.42993064669226 60.630156769806256 6.090274257725851 2.030091419241995 2.030091419241995 0.0 -0.0 0.739632735620696 0.6730107104632479
36_FT 42.13406479821292 5.529930646692254 -0.269843230193743 6.090274257725851 2.030091419241995 2.030091419241995 0.0 -0.0 0.739632735620696 0.6730107104632479
36_FB 42.13406479821292 66.42993064669226 -0.269843230193743 6.090274257725851 2.030091419241995 2.030091419241995 0.0 -0.0 0.739632735620696 0.6730107104632479
40_L -1.079784316808059 20.360358302166397 14.659601809039446 6.3388230652277455 2.112941021742559 2.112941021742559 0.0 -0.0 0.8608342640850161 0.5088854191045453
42_B 12.44532171719386 63.22552552782939 38.7972693884418 6.466875785337688 2.1556252617792633 2.1556252617792633 0.0 0.0 0.6858728758951139 0.7277213739552836
43_L -1.8538238799144438 40.16864953244295 41.42738918431857 6.531868967493026 2.1772896558309847 2.1772896558309847 0.0 -0.0 0.8971229945165649 0.4417808650333688
48_R 60.908887320855754 46.442954016368596 13.671140121360358 6.866765050840903 2.2889216836136352 2.2889216836136352 0.0 0.0 0.43861391052531945 0.8986756019241242
49_B 25.142890325231473 64.4131038774456 5.976522411879135 6.93577718692953 2.311925728976514 2.311925728976514 0.0 -0.0 0.7611420715427216 0.6485851886434459
50_F 26.120315410306578 18.886236652496756 -1.088445140477603 7.005482906516787 2.3351609688389 2.3351609688389 0.0 0.0 0.5689873473401131 0.8223462765568174
53_T 8.85292150742836 -1.5050784940635396 7.122955208886717 7.2188316235539745 2.4062772078513763 2.4062772078513763 0.0 0.0 0.4937832216878833 0.8695850332081013
57_T 53.90786623026344 -1.0297776995458037 56.47358099205521 7.364661695777331 2.454887231925782 2.454887231925782 0.0 0.0 0.6906372933410847 0.7232013060320761
59_T 36.72638446973577 -4.566063826686381 20.8147544631111 7.4386777763382375 2.479559258779409 2.479559258779409 0.0 -0.0 0.8334397726994561 0.5526103014626843
62_B 18.27673817528245 68.06676285706916 42.04622589288172 7.588949035447635 2.529649678482505 2.529649678482505 0.0 0.0 0.6993489688984815 0.7147803996337831