ITEM: TIMESTEP
379
ITEM: NUMBER OF ATOMS
222
ITEM: BOX BOUNDS ff ff ff
0 60.9
60.9 0
60.9 0
ITEM: ATOMS id x y z AsphericalShapeX AsphericalShapeY AsphericalShapeZ OrientationX OrientationY OrientationZ OrientationW
1 47.18699001660793 46.43653709867878 27.25310246475194 2.6823398328374846 0.8941132776124999 0.8941132776124999 0.0 -0.0 0.7863642711635499 0.6177630881150306
2 15.079839603598462 12.592586362079576 24.338074166732227 2.709297796334026 0.9030992654446629 0.9030992654446629 0.0 -0.0 0.8896314041555925 0.4566792799549252
3 11.927522579887802 26.022970382960928 58.654069976091755 2.736526691867923 0.9121755639559769 0.9121755639559769 0.0 0.0 0.631512325711268 0.7753658378305981
4 18.961857871882327 54.39256192792144 45.912359043139006 2.764029242351512 0.9213430807838282 0.9213430807838282 0.0 0.0 0.5765741652112841 0.8170448164029381
5 43.950500573543025 5.37261305851541 10.54705897705488 2.791808198062671 0.9306027326875467 0.9306027326875467 0.0 -0.0 0.8873914294477543 0.4610167577677315
6 27.427556501813005 2.822315276391745 19.29119721257697 2.819866336920133 0.9399554456400503 0.9399554456400503 0.0 0.0 0.643710445538684 0.7652691437033046
7 37.15313189461743 0.12713256496463687 28.269282247484295 2.8482064647612044 0.9494021549204067 0.9494021549204067 0.0 -0.0 0.7603958793842515 0.6494598575858641
8 45.58473807153202 33.548952420670055 15.369842481794057 2.8768314156222545 0.9589438052074175 0.9589438052074175 0.0 -0.0 0.7854601334426244 0.6189122545016335
9 47.59750058198829 58.63052228466983 50.2665256225023 2.9057440520222566 0.968581350674087 0.968581350674087 0.0 -0.0 0.7176002965020949 0.6964551776389529
10 4.151988795755466 3.866640998716034 12.486031739575475 2.9349472652489004 0.9783157550829712 0.9783157550829712 0.0 0.0 0.38534345666417513 0.9227732226317065
11 28.976188162650153 23.873416535611888 1.9681796273617307 2.9644439756478738 0.9881479918826189 0.9881479918826189 0.0 0.0 0.49983922045674145 0.866118209999765
12 0.35088293828246764 6.551611786813203 24.084167949504867 2.994237132914766 0.9980790443049208 0.9980790443049208 0.0 0.0 0.2746680171135514 0.9615391205639581
13 9.829530712960892 55.44318188543213 22.441458120283915 3.02432971639022 1.008109905463397 1.008109905463397 0.0 -0.0 0.7886508549344257 0.614841303924191
14 14.537773166591311 30.747321111874353 27.255589709103056 3.054724735357544 1.0182415784525005 1.0182415784525005 0.0 -0.0 0.7750680292508737 0.6318777967559605
15 24.689140215491197 47.71902895260557 25.09116220176442 3.0854252293439988 1.0284750764480022 1.0284750764480022 0.0 0.0 0.6340811782098568 0.7732664866913604
16 14.054369383573935 37.04250441181884 54.74689244286895 3.116434268424655 1.0388114228082082 1.0388114228082082 0.0 -0.0 0.7629176367612683 0.6464956918020424
17 27.47157553183171 11.679362864008779 34.46419338194182 3.147754953529129 1.0492516511763694 1.0492516511763694 0.0 0.0 0.6579222258448839 0.7530858813836
18 38.67683572662833 32.60775011758735 13.832801922042016 3.1793904167521205 1.0597968055840332 1.0597968055840332 0.0 0.0 0.506211649243881 0.8624092799650234
19 18.205973733732957 14.574582890789813 41.40118265356694 3.2113438216662917 1.0704479405554197 1.0704479405554197 0.0 0.0 0.6434542777811493 0.7654845474633303
20 28.31422828929203 58.31483717651172 29.71837820708721 3.243618363638741 1.081206121212918 1.081206121212918 0.0 -0.0 0.7861857262579329 0.6179902942832407
21 44.01092900295489 23.90820939900739 51.394152840270195 3.2762172701505845 1.0920724233835128 1.0920724233835128 0.0 0.0 0.6069811502172251 0.7947162281474907
22 8.386848990005266 52.48703720527919 42.98453386457127 3.3091438011195913 1.1030479337065362 1.1030479337065362 0.0 -0.0 0.8910647246123514 0.45387625687131333
23 45.07897647127777 57.925598706323264 49.162260168289066 3.3424012492264223 1.1141337497421362 1.1141337497421362 0.0 -0.0 0.7582829367961579 0.651925599868416
24 28.1566506384073 7.256830818774707 51.53641617776672 3.375992940243477 1.1253309800811604 1.1253309800811604 0.0 0.0 0.5255054740936084 0.8507902189715464
25 20.36555668050982 59.49372950055211 59.44909605271734 3.409922233367913 1.1366407444559592 1.1366407444559592 0.0 0.0 0.6637035342538496 0.7479957343587923
26 57.115691890647675 6.37735917035471 35.866560693613586 3.4441925215572256 1.1480641738524204 1.1480641738524204 0.0 0.0 0.5361151400853296 0.8441448670526212
27 60.83355015267213 14.390307271967895 20.815953306575143 3.4788072318689185 1.159602410622985 1.159602410622985 0.0 -0.0 0.7297620279401082 0.6837012378054764
28 22.181396734840625 36.57819161273808 37.98678037954671 3.5137698258028163 1.1712566086009348 1.1712566086009348 0.0 -0.0 0.9828164757017253 0.18458541407500267
29 45.186664448308484 27.648790579269935 30.091251400350156 3.549083799647451 1.1830279332158256 1.1830279332158256 0.0 -0.0 0.8740853421614372 0.4857723897243679
30 18.26648629936222 2.383653581580084 26.575786461598213 3.5847526848296174 1.1949175616098813 1.1949175616098813 0.0 -0.0 0.8433777540022546 0.5373210995802349
31 48.447275766018514 43.79763838875534 46.852433731483195 3.6207800482675796 1.2069266827558696 1.2069266827558696 0.0 0.0 0.6952778540174372 0.7187410560924617
32 1.7177605795147208 35.31301043422421 35.96269399900769 3.6571694927276774 1.2190564975759017 1.2190564975759017 0.0 0.0 0.6353234605105568 0.7722461398575527
33 24.43928939949275 23.278622060505825 24.776433089864963 3.693924657184721 1.23130821906157 1.23130821906157 0.0 0.0 0.6411270229476993 0.7674347792784871
34 13.302897250850913 15.928886982991521 33.2665490565959 3.7310492171857494 1.2436830723952608 1.2436830723952608 0.0 -0.0 0.7453722743584635 0.6666484625480594
35 28.73323175302097 44.59062850400236 41.10714717805143 3.7685468852177553 1.2561822950725885 1.2561822950725885 0.0 -0.0 0.7109313362059317 0.7032614273514853
36 33.69488509337595 11.786387251416768 9.864995707226317 3.8064214110786727 1.2688071370262353 1.2688071370262353 0.0 -0.0 0.739632735620696 0.6730107104632479
37 18.597499244495577 53.07353699304098 24.1061415996944 3.8446765822527835 1.2815588607509403 1.2815588607509403 0.0 0.0 0.5163603530767541 0.8563714064414165
38 24.1737068503153 7.118207768889342 17.95585953011445 3.8833162242889947 1.2944387414296614 1.2944387414296614 0.0 0.0 0.5145463711011363 0.8574625542766586
39 12.49757465701327 20.126078959802296 28.324016804862925 3.922344201183777 1.3074480670612592 1.3074480670612592 0.0 0.0 0.5880831456971182 0.8088004783300898
40 55.685116531697666 20.621953872178505 17.074940807560488 3.961764415767326 1.3205881385890954 1.3205881385890954 0.0 -0.0 0.8608342640850161 0.5088854191045453
41 5.751312233161689 11.483604278522627 42.524891009283806 4.001580810093871 1.3338602700312872 1.3338602700312872 0.0 0.0 0.5813114541301716 0.8136811373609846
42 18.33001803161329 59.72431651327863 41.67740021884706 4.041797365836118 1.3472657886120396 1.3472657886120396 0.0 0.0 0.6858728758951139 0.7277213739552836
43 10.635735298937 14.747196066115514 29.720579898912526 4.082418104683094 1.360806034894374 1.360806034894374 0.0 -0.0 0.8971229945165649 0.4417808650333688
44 41.48938771715801 15.526504189994972 33.92704027822905 4.123447088742649 1.3744823629142005 1.3744823629142005 0.0 -0.0 0.7662793896249596 0.6425075073771507
45 32.5728538665015 39.094080327888705 34.6061011268951 4.164888420947192 1.3882961403157275 1.3882961403157275 0.0 -0.0 0.8021859139948743 0.5970743332184094
46 20.63036900980169 28.079206040544168 15.103782759974209 4.206746245464641 1.402248748488217 1.402248748488217 0.0 0.0 0.6689296931602822 0.7433256793683982
47 48.750863757122126 13.996830162216686 14.051934575724008 4.249024748112245 1.416341582704082 1.416341582704082 0.0 -0.0 0.8121614142020023 0.5834328044268712
48 60.558210569974044 1.548299070143742 19.24716364158368 4.291728156775561 1.4305760522585216 1.4305760522585216 0.0 0.0 0.43861391052531945 0.8986756019241242
49 21.901001833103788 18.61275355238972 4.622785109856588 4.3348607418309575 1.4449535806103244 1.4449535806103244 0.0 -0.0 0.7611420715427216 0.6485851886434459
50 32.62811770358995 12.074846053776149 52.62263190645479 4.378426816572948 1.4594756055243205 1.4594756055243205 0.0 0.0 0.5689873473401131 0.8223462765568174
51 3.524712934971612 20.330113034293788 40.562283333026485 4.4224307376453575 1.4741435792151032 1.4741435792151032 0.0 -0.0 0.9816329176571261 0.1907794930592849
52 32.75783543792073 44.505898177388985 25.58664852058311 4.4668769054768305 1.4889589684922688 1.4889589684922688 0.0 -0.0 0.8312938914163103 0.5558331279205367
53 11.47787315877474 58.89783824426438 7.74972773579665 4.511769764721247 1.5039232549071002 1.5039232549071002 0.0 0.0 0.4937832216878833 0.8695850332081013
54 32.055768646082115 50.94860999083594 42.87627542688113 4.557113804701996 1.5190379349006624 1.5190379349006624 0.0 -0.0 0.7425013715714329 0.6698445440656666
55 22.46430628674892 48.01829074833537 8.219610295673837 4.557113804701996 1.5190379349006624 1.5190379349006624 0.0 -0.0 0.899222239431846 0.4374921303419936
56 40.767471227358755 14.59631292067353 20.940407062294472 4.602913559860832 1.5343045199536078 1.5343045199536078 0.0 0.0 0.591041689671776 0.8066410112744902
57 54.1189203866204 57.18549944098753 51.304294312375994 4.602913559860832 1.5343045199536078 1.5343045199536078 0.0 0.0 0.6906372933410847 0.7232013060320761
58 32.56513338918435 48.5385772782662 32.84910930188784 4.649173610211409 1.5497245367371326 1.5497245367371326 0.0 -0.0 0.9778925487455288 0.20910801779935065
59 32.475301315153466 54.686333008752676 25.70339707878415 4.649173610211409 1.5497245367371326 1.5497245367371326 0.0 -0.0 0.8334397726994561 0.5526103014626843
60 42.46195555483516 28.45388751416165 55.2149885489577 4.695898581797379 1.5652995272657846 1.5652995272657846 0.0 -0.0 0.8251393648538317 0.5649292243888745
61 6.602274154231141 40.572381470485624 37.46638946617531 4.695898581797379 1.5652995272657846 1.5652995272657846 0.0 -0.0 0.8342848482439009 0.5513336485202505
62 17.977831799324104 54.241168920607016 30.494002492792582 4.743093147154722 1.5810310490515675 1.5810310490515675 0.0 0.0 0.6993489688984815 0.7147803996337831
63 40.68840201178061 55.25975503449156 52.498529869264125 4.743093147154722 1.5810310490515675 1.5810310490515675 0.0 0.0 0.6638694557235675 0.747848477806363
64 41.43335016521627 43.272196323583984 39.86288088075945 4.790762025779447 1.5969206752598073 1.5969206752598073 0.0 0.0 0.5469534661185369 0.8371630103515794
65 23.59041122569597 13.440698208322596 0.20439975131653987 4.790762025779447 1.5969206752598073 1.5969206752598073 0.0 0.0 0.534266604389083 0.8453160328744268
66 36.603123215809354 15.272703183090778 21.909829994667973 4.8389099845989625 1.6129699948663299 1.6129699948663299 0.0 0.0 0.49259387534365895 0.8702593142126752
67 60.30840998945939 19.344669804707202 11.923383601742133 4.8389099845989625 1.6129699948663299 1.6129699948663299 0.0 -0.0 0.7991221049958454 0.6011687461162707
68 40.966551647155384 35.937840638928144 25.916868122524725 4.887541838449432 1.6291806128164878 1.6291806128164878 0.0 -0.0 0.8113628171424923 0.5845428803420658
69 38.687729665858015 11.916428702282408 56.867493599793676 4.887541838449432 1.6291806128164878 1.6291806128164878 0.0 0.0 0.69974083585519 0.7143967823532522
70 60.79407739866359 49.80150579866677 25.244476086901695 4.936662450556738 1.6455541501855646 1.6455541501855646 0.0 -0.0 0.9226100212719841 0.3857340387475665
71 27.414548058716584 7.717096721189904 32.03458293025199 4.936662450556738 1.6455541501855646 1.6455541501855646 0.0 -0.0 0.8908476943010929 0.4543020862360491
72 5.999571811418406 46.41162525394858 8.83346994336534 4.986276733022961 1.6620922443409898 1.6620922443409898 0.0 -0.0 0.9180976465577227 0.39635427509384946
73 46.9970618969455 31.008409771994046 35.04214343100073 4.986276733022961 1.6620922443409898 1.6620922443409898 0.0 0.0 0.6852526383261238 0.7283054453092375
74 46.56051900362697 47.995271969979946 7.936828778458381 5.03638964731775 1.6787965491059202 1.6787965491059202 0.0 0.0 0.6622208999947843 0.7493086677799063
75 3.622825956833606 60.678652380528824 33.77375186737572 5.03638964731775 1.6787965491059202 1.6787965491059202 0.0 0.0 0.6669694181073614 0.7450850926636016
76 55.000994483360834 10.334097036791432 28.275028284611114 5.087006204774224 1.695668734924764 1.695668734924764 0.0 0.0 0.4849872773235938 0.8745212066235144
77 17.461087080518446 42.22975390475277 18.018247966542344 5.087006204774224 1.695668734924764 1.695668734924764 0.0 -0.0 0.724549744492829 0.6892225096116464
78 4.639383343749451 12.673029681729801 7.272363517640677 5.138131467090422 1.7127104890301406 1.7127104890301406 0.0 0.0 0.646327957303847 0.7630597431442944
79 3.8986526733445563 20.337808295408735 31.35707534809933 5.138131467090422 1.7127104890301406 1.7127104890301406 0.0 0.0 0.4210348644808628 0.9070444547493698
80 53.04962157884332 12.896971864917095 19.660595986046225 5.189770546835137 1.7299235156116908 1.7299235156116908 0.0 0.0 0.5786941501693628 0.8155446527074768
81 2.967173320218979 50.396461758339825 34.78046185087384 5.189770546835137 1.7299235156116908 1.7299235156116908 0.0 0.0 0.683142879342022 0.730284743373632
82 10.431758971111972 19.530455419368042 59.39147235941016 5.241928607959302 1.7473095359864181 1.7473095359864181 0.0 0.0 0.3480344086077516 0.937481760049257
83 21.245606889896745 1.4857777053224293 1.4961705160317444 5.241928607959302 1.7473095359864181 1.7473095359864181 0.0 -0.0 0.8280938516825816 0.560589486884571
84 33.95811480267595 50.50333305827611 13.033494082430526 5.294610866312542 1.7648702887708618 1.7648702887708618 0.0 -0.0 0.8521868438699086 0.5232375972109076
85 23.69204315990419 36.95117946141918 30.644874968241883 5.294610866312542 1.7648702887708618 1.7648702887708618 0.0 0.0 0.2683204071818837 0.9633297250109892
86 11.036797730225004 49.71266541631521 56.57107773345425 5.347822590164623 1.7826075300548923 1.7826075300548923 0.0 0.0 0.5717525694490604 0.8204261083902665
87 14.784899322273784 4.955923412404815 42.431493848167875 5.347822590164623 1.7826075300548923 1.7826075300548923 0.0 -0.0 0.7407334016199733 0.6717990977401677
88 22.794622584047183 53.7719200511287 52.28383564655084 5.401569100732312 1.8005230335774203 1.8005230335774203 0.0 0.0 0.6524446383875427 0.7578363898885753
89 19.51816886385861 29.365543553315547 42.89941209766549 5.401569100732312 1.8005230335774203 1.8005230335774203 0.0 0.0 0.3815125934194192 0.9243636411404275
90 15.468183594696551 58.27030133911127 48.625730746734554 5.455855772711356 1.8186185909037629 1.8186185909037629 0.0 -0.0 0.7664413141092511 0.642314340511314
91 37.305468823485825 10.207589023147143 32.059965555136564 5.455855772711356 1.8186185909037629 1.8186185909037629 0.0 -0.0 0.7164030651197486 0.6976866404676452
92 54.447849895897775 23.951703859050635 46.68586222587275 5.510688034814179 1.836896011604724 1.836896011604724 0.0 0.0 0.3159382626609752 0.9487797500931208
93 11.456393508848546 41.0597014982667 38.93465470182382 5.510688034814179 1.836896011604724 1.836896011604724 0.0 -0.0 0.807675111463051 0.5896277760783901
94 59.70888907159397 9.729136483692592 44.24948804144901 5.5660713703127795 1.8553571234376163 1.8553571234376163 0.0 0.0 0.5856043209472178 0.8105970511221638
95 44.65389435180631 16.963481368743924 54.36487535861212 5.5660713703127795 1.8553571234376163 1.8553571234376163 0.0 -0.0 0.8283891439806925 0.5601530381377355
96 35.02602813479363 3.272892050283522 40.22207570390275 5.622011317586814 1.8740037725289638 1.8740037725289638 0.0 0.0 0.6380161188650698 0.7700230074928626
97 31.582892379982116 23.431352898907058 26.178412539028255 5.622011317586814 1.8740037725289638 1.8740037725289638 0.0 0.0 0.5652655734899162 0.8249089837231233
98 19.024414141009863 22.15928654644365 41.15882413635765 5.678513470677692 1.892837823559232 1.892837823559232 0.0 -0.0 0.9884337224668884 0.15165347437579585
99 48.92335679136446 28.922820806411597 11.414163042690918 5.678513470677692 1.892837823559232 1.892837823559232 0.0 0.0 0.644584962479319 0.7645326848117973
100 35.75898652928931 16.212899523880097 55.303304910188935 5.735583479847685 1.9118611599492275 1.9118611599492275 0.0 -0.0 0.7665764345255346 0.6421530736748979
101 14.751633117872947 33.975899093345085 58.71774267551024 5.735583479847685 1.9118611599492275 1.9118611599492275 0.0 -0.0 0.7486465484609144 0.6629693397718779
102 38.63890407108984 18.80619676426389 16.270134025273975 5.7932270521453235 1.9310756840484475 1.9310756840484475 0.0 -0.0 0.764238184631255 0.644934102952793
103 26.18344645537798 23.155475411856617 13.06952957992901 5.7932270521453235 1.9310756840484475 1.9310756840484475 0.0 -0.0 0.7262700822056904 0.6874094614514261
104 42.92734289941007 57.74704365012726 43.57208158509256 5.851449951975994 1.950483317325302 1.950483317325302 0.0 0.0 0.6864264585310771 0.7271992278794606
105 20.166374708804238 57.980514283204144 13.453554582154434 5.851449951975994 1.950483317325302 1.950483317325302 0.0 -0.0 0.8498704758576332 0.5269916263713497
106 16.382257815150993 32.584267117773145 52.965018283274475 5.910258001677964 1.9700860005593221 1.9700860005593221 0.0 -0.0 0.793590538753224 0.6084521811953406
107 45.824105830337466 13.194633511955677 17.700578223983555 5.910258001677964 1.9700860005593221 1.9700860005593221 0.0 -0.0 0.8299364941277125 0.5578578812878792
108 52.45799343083422 13.635984452191934 60.24171604526237 5.969657082105391 1.9898856940351028 1.9898856940351028 0.0 -0.0 0.7596155095013813 0.650372414640225
109 8.717432465539291 50.88390719860755 47.146022636820824 5.969657082105391 1.9898856940351028 1.9898856940351028 0.0 -0.0 0.746179639226726 0.6657446552571586
110 34.11311486384792 14.355557473218 49.511657988987345 6.029653133215721 2.0098843777385453 2.0098843777385453 0.0 -0.0 0.7434755474029917 0.6687631198068729
111 37.427054239709335 58.95214128495779 16.094187225633526 6.029653133215721 2.0098843777385453 2.0098843777385453 0.0 -0.0 0.7635489887521677 0.6457499065238353
112 47.37085220733131 3.0006978007117717 19.597621411032083 6.090252154664051 2.030084051554712 2.030084051554712 0.0 -0.0 0.925703395166632 0.3782502137170186
113 15.562461106769623 2.4170538661023366 14.88235843992609 6.090252154664051 2.030084051554712 2.030084051554712 0.0 -0.0 0.7476030998596368 0.6641457709571461
114 54.33377309680467 24.27559279484087 33.1370033024358 6.151460206403156 2.0504867354677194 2.0504867354677194 0.0 -0.0 0.7095009508808979 0.7047044775642494
115 30.644961423954467 36.35113634756885 59.219303649504184 6.151460206403156 2.0504867354677194 2.0504867354677194 0.0 0.0 0.692332939305712 0.7215782016887105
116 19.163391674119303 6.824480745848138 50.32561799475365 6.2132834092891756 2.0710944697630316 2.0710944697630316 0.0 0.0 0.4838188577050026 0.8751681626573412
117 0.14042165042580454 43.96425792836834 28.622198856044623 6.2132834092891756 2.0710944697630316 2.0710944697630316 0.0 0.0 0.4072390243389004 0.9133216175343166
118 41.04124035892703 15.955981478476833 0.11036861519380614 6.2757279456937525 2.0919093152312525 2.0919093152312525 0.0 -0.0 0.9854258972554679 0.17010526452245991
119 34.65596703646362 40.52605961781248 1.0521037305340277 6.2757279456937525 2.0919093152312525 2.0919093152312525 0.0 0.0 0.693566054094668 0.720393037589587
120 38.09608904909237 33.880766601222824 28.628803548333348 6.338800060122754 2.112933353374253 2.112933353374253 0.0 -0.0 0.8546373086497397 0.5192254526349123
121 58.40642437632304 36.03378627591449 55.52007052987655 6.338800060122754 2.112933353374253 2.112933353374253 0.0 -0.0 0.738138054050796 0.6746496966293722
122 54.282112863388896 23.626971752895244 56.870581688318914 6.402506059840124 2.134168686613394 2.134168686613394 0.0 0.0 0.30497028615780525 0.9523618663936657
123 39.66472039665373 28.98896500026724 43.91564579170735 6.402506059840124 2.134168686613394 2.134168686613394 0.0 -0.0 0.8240326158671573 0.5665423620411186
124 44.5249732030488 50.367831092461806 54.027602929930104 6.466852315499 2.155617438499659 2.155617438499659 0.0 -0.0 0.7351480847541838 0.6779065521753388
125 42.65791140552466 41.79725062286288 47.58824200138807 6.466852315499 2.155617438499659 2.155617438499659 0.0 0.0 0.6354145425399089 0.7721711980699606
126 26.77415196108842 13.326766617649778 44.19333247004147 6.531845261778396 2.1772817539261196 2.1772817539261196 0.0 -0.0 0.9631928649301144 0.2688112812880415
127 2.330428592010991 35.127612894597064 43.46354536998398 6.531845261778396 2.1772817539261196 2.1772817539261196 0.0 0.0 0.6645731125154195 0.7472232451694524
128 12.540173646579786 45.117682260956556 50.81754268578532 6.597491398027115 2.19916379934237 2.19916379934237 0.0 -0.0 0.837305869343264 0.5467347447925007
129 37.63399060274367 49.12935104386357 4.0091519634679145 6.597491398027115 2.19916379934237 2.19916379934237 0.0 0.0 0.6718759690179156 0.7406636768846148
130 35.28577130597736 5.428778969602395 11.956670081634 6.663797288913736 2.2212657629712234 2.2212657629712234 0.0 -0.0 0.8172568989423515 0.5762735124323614
131 10.272626254036972 25.9461164278479 48.19793409219419 6.663797288913736 2.2212657629712234 2.2212657629712234 0.0 0.0 0.5650588956672867 0.8250505708302167
132 29.31448323192754 4.9613024780479344 55.96281449932588 6.730769565082351 2.2435898550274236 2.2435898550274236 0.0 0.0 0.5632303093681869 0.8262999568008076
133 22.05091824779873 42.11758119377064 41.70181100116192 6.730769565082351 2.2435898550274236 2.2435898550274236 0.0 0.0 0.7047758212396541 0.7094300823872436
134 57.67186464350944 47.42719365182998 47.859477537406285 6.798414923816377 2.2661383079387827 2.2661383079387827 0.0 -0.0 0.7457546235329385 0.6662207152882933
135 44.66129690892803 5.2799074892524755 58.874042842883185 6.798414923816377 2.2661383079387827 2.2661383079387827 0.0 0.0 0.5807371118896761 0.8140911539097067
136 16.23951519761901 46.39957549566655 59.98510850938804 6.866740129708274 2.288913376569426 2.288913376569426 0.0 -0.0 0.7765636880913803 0.6300387593933514
137 9.571720673323322 47.63738356343175 26.52128643865574 6.866740129708274 2.288913376569426 2.288913376569426 0.0 -0.0 0.9207785641385271 0.39008567754147583
138 46.85277174736475 18.923220160430635 21.85837756969294 6.93575201533539 2.311917338445115 2.311917338445115 0.0 0.0 0.5933031767685688 0.8049790931672228
139 56.33968358483024 20.695036539813202 2.833748037659719 6.93575201533539 2.311917338445115 2.311917338445115 0.0 0.0 0.36293328461656904 0.9318151270061183
140 4.111683812662734 4.809081172247632 37.095686676356145 7.005457481943911 2.335152493981297 2.335152493981297 0.0 0.0 0.5657838974393875 0.8245535649054563
141 60.47801848648897 59.988604253971104 48.38729937067435 7.005457481943911 2.335152493981297 2.335152493981297 0.0 0.0 0.5898626798291705 0.8075035720941112
142 4.4641870489495545 41.97791475177952 57.99680586075121 7.075863500138381 2.35862116671282 2.35862116671282 0.0 0.0 0.494526605223718 0.8691624915548904
143 30.38977697665746 11.255933749994133 0.24051319225628132 7.075863500138381 2.35862116671282 2.35862116671282 0.0 0.0 0.6621201748514545 0.7493976741721844
144 13.512768260381065 37.722469099786395 49.284585489022305 7.146977110579601 2.382325703526541 2.382325703526541 0.0 -0.0 0.8358120424685423 0.5490156916378287
145 60.78419864985012 34.57681065489574 20.711483577453894 7.146977110579601 2.382325703526541 2.382325703526541 0.0 -0.0 0.7380766977143534 0.6747168208152773
146 30.069193984590854 52.9683554218946 50.21911806517318 7.21880542468765 2.406268474895884 2.406268474895884 0.0 0.0 0.5600689403365469 0.8284460043179022
147 38.12374813324348 23.188131893581847 39.0585568416234 7.21880542468765 2.406268474895884 2.406268474895884 0.0 -0.0 0.8053653384335279 0.5927787712543771
148 59.87004111544218 25.888622435119814 50.56445308387079 7.29135562535386 2.4304518751179462 2.4304518751179462 0.0 -0.0 0.9475491048281723 0.31961022189430877
149 43.04671064254045 1.5895872846952979 26.723373308993096 7.29135562535386 2.4304518751179462 2.4304518751179462 0.0 -0.0 0.8855269061838191 0.46458809543994295
150 28.7036961315893 16.125843982651745 16.218972430263957 7.364634967658769 2.4548783225529247 2.4548783225529247 0.0 -0.0 0.8997163709941051 0.43647502994466686
151 33.81162576700203 39.97160128555571 43.48771159235572 7.364634967658769 2.4548783225529247 2.4548783225529247 0.0 0.0 0.6949034215940625 0.7191030765174521
152 59.37269981786609 46.28643741684952 7.708470980312694 7.438650779597661 2.479550259865865 2.479550259865865 0.0 0.0 0.6496096252583186 0.7602679361723385
153 26.031775121033146 0.7461620071575252 6.5372084632877 7.438650779597661 2.479550259865865 2.479550259865865 0.0 0.0 0.6980264017745981 0.7160720232110785
154 48.04296520263666 57.40867792498962 6.367195280649875 7.513410462813327 2.504470154271107 2.504470154271107 0.0 -0.0 0.9126309719920443 0.4087844284716046
155 23.178301105766305 31.99626251969922 7.450390698817598 7.513410462813327 2.504470154271107 2.504470154271107 0.0 0.0 0.34897032679986184 0.9371337743423815
156 34.888923966411824 26.516320599926843 47.97671112629536 7.588921493336507 2.529640497778839 2.529640497778839 0.0 0.0 0.6995675014656925 0.7145665195718649
157 18.67323646650018 27.784789419497958 47.555187554891255 7.588921493336507 2.529640497778839 2.529640497778839 0.0 0.0 0.63565327495599 0.7719746848425306
158 51.079938802424046 0.1086668131808799 48.1029515687221 7.6651914223331925 2.5550638074444025 2.5550638074444025 0.0 -0.0 0.7426985308561326 0.6696259345814963
159 13.20226858540762 24.353468009033953 9.805191916845052 7.6651914223331925 2.5550638074444025 2.5550638074444025 0.0 0.0 0.4891044501540252 0.8722252213961303
160 49.848779742529935 39.09210592326206 20.63924907336643 7.742227876859763 2.5807426256199464 2.5807426256199464 0.0 0.0 0.6466947184788655 0.7627489371290798
161 32.845575585010515 13.71637967149793 35.44044682812568 7.742227876859763 2.5807426256199464 2.5807426256199464 0.0 0.0 0.6377575578887067 0.7702371695496348
162 19.77389573142324 18.828444736584604 22.007691342649 7.820038560625966 2.6066795202086297 2.6066795202086297 0.0 0.0 0.6701572236966805 0.7422191694689361
163 41.5101876644445 56.442304285324994 38.21510164669486 7.820038560625966 2.6066795202086297 2.6066795202086297 0.0 -0.0 0.7797338016261434 0.6261111711203069
164 45.240866485235834 48.05808928298955 33.276567976403115 7.898631254764834 2.632877084921611 2.632877084921611 0.0 0.0 0.6966086930688543 0.7174512727293072
165 47.34044066773557 22.61302014804461 27.658455746056998 7.898631254764834 2.632877084921611 2.632877084921611 0.0 -0.0 0.8994069955971553 0.43711217813153935
7_B 37.15313189461743 61.02713256496464 28.269282247484295 2.8482064647612044 0.9494021549204067 0.9494021549204067 0.0 -0.0 0.7603958793842515 0.6494598575858641
9_T 47.59750058198829 -2.2694777153301686 50.2665256225023 2.9057440520222566 0.968581350674087 0.968581350674087 0.0 -0.0 0.7176002965020949 0.6964551776389529
12_R 61.250882938282466 6.551611786813203 24.084167949504867 2.994237132914766 0.9980790443049208 0.9980790443049208 0.0 0.0 0.2746680171135514 0.9615391205639581
20_T 28.31422828929203 -2.5851628234882753 29.71837820708721 3.243618363638741 1.081206121212918 1.081206121212918 0.0 -0.0 0.7861857262579329 0.6179902942832407
23_T 45.07897647127777 -2.974401293676735 49.162260168289066 3.3424012492264223 1.1141337497421362 1.1141337497421362 0.0 -0.0 0.7582829367961579 0.651925599868416
25_T 20.36555668050982 -1.406270499447892 59.44909605271734 3.409922233367913 1.1366407444559592 1.1366407444559592 0.0 0.0 0.6637035342538496 0.7479957343587923
27_L -0.06644984732786696 14.390307271967895 20.815953306575143 3.4788072318689185 1.159602410622985 1.159602410622985 0.0 -0.0 0.7297620279401082 0.6837012378054764
30_B 18.26648629936222 63.28365358158008 26.575786461598213 3.5847526848296174 1.1949175616098813 1.1949175616098813 0.0 -0.0 0.8433777540022546 0.5373210995802349
42_T 18.33001803161329 -1.1756834867213684 41.67740021884706 4.041797365836118 1.3472657886120396 1.3472657886120396 0.0 0.0 0.6858728758951139 0.7277213739552836
48_LT -0.34178943002595474 1.548299070143742 19.24716364158368 4.291728156775561 1.4305760522585216 1.4305760522585216 0.0 0.0 0.43861391052531945 0.8986756019241242
48_LB -0.34178943002595474 62.44829907014374 19.24716364158368 4.291728156775561 1.4305760522585216 1.4305760522585216 0.0 0.0 0.43861391052531945 0.8986756019241242
48_RB 60.558210569974044 62.44829907014374 19.24716364158368 4.291728156775561 1.4305760522585216 1.4305760522585216 0.0 0.0 0.43861391052531945 0.8986756019241242
51_R 64.42471293497161 20.330113034293788 40.562283333026485 4.4224307376453575 1.4741435792151032 1.4741435792151032 0.0 -0.0 0.9816329176571261 0.1907794930592849
53_T 11.47787315877474 -2.002161755735621 7.74972773579665 4.511769764721247 1.5039232549071002 1.5039232549071002 0.0 0.0 0.4937832216878833 0.8695850332081013
57_T 54.1189203866204 -3.714500559012471 51.304294312375994 4.602913559860832 1.5343045199536078 1.5343045199536078 0.0 0.0 0.6906372933410847 0.7232013060320761
65_Ba 23.59041122569597 13.440698208322596 61.104399751316535 4.790762025779447 1.5969206752598073 1.5969206752598073 0.0 0.0 0.534266604389083 0.8453160328744268
67_L -0.5915900105406067 19.344669804707202 11.923383601742133 4.8389099845989625 1.6129699948663299 1.6129699948663299 0.0 -0.0 0.7991221049958454 0.6011687461162707
70_L -0.10592260133640963 49.80150579866677 25.244476086901695 4.936662450556738 1.6455541501855646 1.6455541501855646 0.0 -0.0 0.9226100212719841 0.3857340387475665
75_T 3.622825956833606 -0.22134761947117454 33.77375186737572 5.03638964731775 1.6787965491059202 1.6787965491059202 0.0 0.0 0.6669694181073614 0.7450850926636016
82_F 10.431758971111972 19.530455419368042 -1.5085276405898398 5.241928607959302 1.7473095359864181 1.7473095359864181 0.0 0.0 0.3480344086077516 0.937481760049257