ITEM: TIMESTEP
283
ITEM: NUMBER OF ATOMS
206
ITEM: BOX BOUNDS ff ff ff
0 60.9
60.9 0
60.9 0
ITEM: ATOMS id x y z AsphericalShapeX AsphericalShapeY AsphericalShapeZ OrientationX OrientationY OrientationZ OrientationW
1 42.906684298115046 50.71505501523944 25.76670879023042 2.004696085594318 0.6682320285314444 0.6682320285314444 0.0 -0.0 0.7863642711635499 0.6177630881150306
2 19.16100128005772 8.725541703812812 25.35898743091856 2.0248436162075323 0.6749478720691721 0.6749478720691721 0.0 -0.0 0.8896314041555925 0.4566792799549252
3 14.515057140690022 24.576232218884012 55.16298996875074 2.045193632869726 0.6817312109565744 0.6817312109565744 0.0 0.0 0.631512325711268 0.7753658378305981
4 21.936723870938643 51.677928622239925 41.293820237704196 2.065748170599548 0.6885827235331771 0.6885827235331771 0.0 0.0 0.5765741652112841 0.8170448164029381
5 51.57141564639776 11.259989517164197 20.08450322893522 2.08650928486789 0.6955030949559565 0.6955030949559565 0.0 -0.0 0.8873914294477543 0.4610167577677315
6 23.222803819334583 5.330020589187222 19.232650416663876 2.1074790518034563 0.7024930172678248 0.7024930172678248 0.0 0.0 0.643710445538684 0.7652691437033046
7 44.14605839069257 1.513766800598456 24.587866044665258 2.128659568400479 0.709553189466828 0.709553189466828 0.0 -0.0 0.7603958793842515 0.6494598575858641
8 47.93380189156621 35.42324257775409 9.17746757759287 2.1500529527282226 0.71668431757607 0.71668431757607 0.0 -0.0 0.7854601334426244 0.6189122545016335
9 48.3462000303528 60.04962774823991 54.48853123041023 2.171661344142947 0.7238871147143171 0.7238871147143171 0.0 -0.0 0.7176002965020949 0.6964551776389529
10 17.91315906283491 0.5186778688828573 13.805145644882083 2.1934869035017988 0.7311623011672707 0.7311623011672707 0.0 0.0 0.38534345666417513 0.9227732226317065
11 25.23666344771346 10.735006222479209 3.7424726310364447 2.215531813378937 0.7385106044596436 0.7385106044596436 0.0 0.0 0.49983922045674145 0.866118209999765
12 7.075848561413078 1.30076497158317 21.075110250216575 2.2377982782836807 0.7459327594278888 0.7459327594278888 0.0 0.0 0.2746680171135514 0.9615391205639581
13 16.950379831128526 54.496525385434616 33.603400225456404 2.2602885248810978 0.7534295082936968 0.7534295082936968 0.0 -0.0 0.7886508549344257 0.614841303924191
14 22.71494440453112 35.50343642228706 16.83700912455687 2.283004802214583 0.7610016007381871 0.7610016007381871 0.0 -0.0 0.7750680292508737 0.6318777967559605
15 21.419878865682225 55.80540035547317 24.861912402785507 2.3059493819307892 0.7686497939769276 0.7686497939769276 0.0 0.0 0.6340811782098568 0.7732664866913604
16 19.215497586795564 34.6110996527854 51.54301003202244 2.329124558506834 0.7763748528356083 0.7763748528356083 0.0 -0.0 0.7629176367612683 0.6464956918020424
17 31.098155042427486 26.460199259888817 37.566449657007475 2.3525326494796546 0.7841775498265517 0.7841775498265517 0.0 0.0 0.6579222258448839 0.7530858813836
18 45.746225405744156 39.19870151764802 5.971393633576599 2.3761759956778903 0.7920586652259636 0.7920586652259636 0.0 0.0 0.506211649243881 0.8624092799650234
19 19.571646578383337 15.130976065249676 40.805837890815894 2.4000569614558476 0.8000189871519454 0.8000189871519454 0.0 0.0 0.6434542777811493 0.7654845474633303
20 22.03944754022154 55.66392177949165 15.677645310889275 2.424177934929996 0.8080593116433363 0.8080593116433363 0.0 -0.0 0.7861857262579329 0.6179902942832407
21 41.94942799790308 17.014342061404918 46.71134213303501 2.448541328217803 0.8161804427392594 0.8161804427392594 0.0 0.0 0.6069811502172251 0.7947162281474907
22 59.6008969866934 52.958058575374984 51.359861408514696 2.4731495776788557 0.8243831925596247 0.8243831925596247 0.0 -0.0 0.8910647246123514 0.45387625687131333
23 42.67427981945858 12.740967233587245 47.46892266926729 2.498005144158692 0.8326683813862253 0.8326683813862253 0.0 -0.0 0.7582829367961579 0.651925599868416
24 23.099916838240794 15.46540522320092 53.02239830879021 2.523110513234598 0.8410368377448685 0.8410368377448685 0.0 0.0 0.5255054740936084 0.8507902189715464
25 14.06791109636567 2.1874838011183577 8.212813410742113 2.548468195464428 0.849489398488138 0.849489398488138 0.0 0.0 0.6637035342538496 0.7479957343587923
26 56.252950586083905 14.864975253768735 48.98377197730658 2.574080726637517 0.8580269088791773 0.8580269088791773 0.0 0.0 0.5361151400853296 0.8441448670526212
27 58.515679099261945 23.62400619400223 19.635459791830666 2.5999506680283613 0.8666502226761277 0.8666502226761277 0.0 -0.0 0.7297620279401082 0.6837012378054764
28 10.71993601989026 51.15665060462341 36.424390714363035 2.626080606652641 0.875360202217543 0.875360202217543 0.0 -0.0 0.9828164757017253 0.18458541407500267
29 44.20303944671998 32.41364164074927 27.382775366484875 2.652473155525999 0.8841577185086649 0.8841577185086649 0.0 -0.0 0.8740853421614372 0.4857723897243679
30 17.812251727877687 4.855204708480032 26.200642748978442 2.6791309539253025 0.8930436513084326 0.8930436513084326 0.0 -0.0 0.8433777540022546 0.5373210995802349
31 47.7895179225646 47.033536684249796 51.600774481959974 2.706056667652621 0.9020188892175393 0.9020188892175393 0.0 0.0 0.6952778540174372 0.7187410560924617
32 7.207937764231065 47.202438837235135 43.764396266925935 2.7332529893017488 0.9110843297672477 0.9110843297672477 0.0 0.0 0.6353234605105568 0.7722461398575527
33 30.494551365157285 13.554902444590232 23.225372133946966 2.760722638527537 0.9202408795091754 0.9202408795091754 0.0 0.0 0.6411270229476993 0.7674347792784871
34 3.0892458119941177 22.6426188454621 43.48669353651977 2.7884683623177797 0.9294894541059256 0.9294894541059256 0.0 -0.0 0.7453722743584635 0.6666484625480594
35 35.045588774723804 41.11423555037315 42.99069921994238 2.816492935267998 0.9388309784226695 0.9388309784226695 0.0 -0.0 0.7109313362059317 0.7032614273514853
36 27.93431572991708 22.90035809379608 17.591889515910545 2.844799159858808 0.9482663866196013 0.9482663866196013 0.0 -0.0 0.739632735620696 0.6730107104632479
37 10.305629720174851 49.98237760701633 12.833954103523833 2.873389866736299 0.9577966222454327 0.9577966222454327 0.0 0.0 0.5163603530767541 0.8563714064414165
38 18.68400931542618 56.065477774764794 8.894488832201022 2.9022679149949417 0.9674226383316437 0.9674226383316437 0.0 0.0 0.5145463711011363 0.8574625542766586
39 12.500870531814527 25.50706892003624 18.468141970936436 2.931436192463665 0.9771453974878885 0.9771453974878885 0.0 0.0 0.5880831456971182 0.8088004783300898
40 54.94549705847306 33.59133557682491 17.440312793928705 2.9608976159945177 0.9869658719981664 0.9869658719981664 0.0 -0.0 0.8608342640850161 0.5088854191045453
41 47.90730210978632 9.6033235874904 59.290113884988955 2.9906551317543664 0.9968850439181262 0.9968850439181262 0.0 0.0 0.5813114541301716 0.8136811373609846
42 7.111703810315119 3.3682474296152884 37.02210528101177 3.0207117155196257 1.0069039051732085 1.0069039051732085 0.0 0.0 0.6858728758951139 0.7277213739552836
43 54.73715148877638 60.50774016178307 29.842342596504615 3.051070372973688 1.0170234576579065 1.0170234576579065 0.0 -0.0 0.8971229945165649 0.4417808650333688
44 39.25291342551624 16.021624239805643 39.21084730906005 3.081734140007658 1.0272447133358824 1.0272447133358824 0.0 -0.0 0.7662793896249596 0.6425075073771507
45 24.812278490684108 26.659591096344677 26.578328265785306 3.1127060830236877 1.0375686943412283 1.0375686943412283 0.0 -0.0 0.8021859139948743 0.5970743332184094
46 16.63524832916859 39.54915752719874 13.073562895304143 3.143989299242001 1.0479964330806673 1.0479964330806673 0.0 0.0 0.6689296931602822 0.7433256793683982
47 56.697041448650545 21.65135004901577 18.560475258206086 3.1755869170102047 1.058528972336735 1.058528972336735 0.0 -0.0 0.8121614142020023 0.5834328044268712
48 52.670834101458574 2.2519534121388056 22.471754032181305 3.2075020961164706 1.0691673653721578 1.0691673653721578 0.0 0.0 0.43861391052531945 0.8986756019241242
49 20.806519595601213 27.827153627939353 3.0581605345072465 3.239738028105242 1.079912676035079 1.079912676035079 0.0 -0.0 0.7611420715427216 0.6485851886434459
50 30.720910480002985 27.158568243297417 52.42058993447757 3.272297936596623 1.0907659788655504 1.0907659788655504 0.0 0.0 0.5689873473401131 0.8223462765568174
51 11.66604847458708 26.819649145681417 41.42922559779587 3.3051850776086282 1.101728359202867 1.101728359202867 0.0 -0.0 0.9816329176571261 0.1907794930592849
52 36.4457294925481 2.818011738817578 21.94209231514275 3.338402739882671 1.1128009132942287 1.1128009132942287 0.0 -0.0 0.8312938914163103 0.5558331279205367
53 17.583662079280668 45.61343131159917 9.230671090870938 3.3719542452127302 1.1239847484042471 1.1239847484042471 0.0 0.0 0.4937832216878833 0.8695850332081013
54 30.273540325622772 50.20363193851946 39.89153809872548 3.4058429487772885 1.13528098292576 1.13528098292576 0.0 -0.0 0.7425013715714329 0.6698445440656666
55 18.920473448536008 49.30786223867778 6.448019678975723 3.4058429487772885 1.13528098292576 1.13528098292576 0.0 -0.0 0.899222239431846 0.4374921303419936
56 47.48468054906406 12.416394566031215 30.302304303873036 3.4400722394749383 1.1466907464916503 1.1466907464916503 0.0 0.0 0.591041689671776 0.8066410112744902
57 51.81808461832223 2.722421330987096 47.422741440624456 3.4400722394749383 1.1466907464916503 1.1466907464916503 0.0 0.0 0.6906372933410847 0.7232013060320761
58 46.493983962782494 53.0787168177839 29.90209229481319 3.4746455402632703 1.1582151800877531 1.1582151800877531 0.0 -0.0 0.9778925487455288 0.20910801779935065
59 30.75207626497156 53.176412182787075 32.519295772808405 3.4746455402632703 1.1582151800877531 1.1582151800877531 0.0 -0.0 0.8334397726994561 0.5526103014626843
60 36.43217856293856 28.42429668425366 6.631572774624118 3.50956630850118 1.1698554361670601 1.1698554361670601 0.0 -0.0 0.8251393648538317 0.5649292243888745
61 10.690488656169538 26.837268596180362 33.983972025522526 3.50956630850118 1.1698554361670601 1.1698554361670601 0.0 -0.0 0.8342848482439009 0.5513336485202505
62 5.897424383511597 36.25804065048677 27.236953700552682 3.544838036294564 1.181612678764857 1.181612678764857 0.0 0.0 0.6993489688984815 0.7147803996337831
63 35.51669610001963 50.009461609866484 59.396977921992146 3.544838036294564 1.181612678764857 1.181612678764857 0.0 0.0 0.6638694557235675 0.747848477806363
64 32.0507187789278 57.27634486263156 48.9558102564249 3.5804642508456834 1.1934880836152193 1.1934880836152193 0.0 0.0 0.5469534661185369 0.8371630103515794
65 21.982811876562703 7.566517452324521 8.697327071544361 3.5804642508456834 1.1934880836152193 1.1934880836152193 0.0 0.0 0.534266604389083 0.8453160328744268
66 39.15770371689198 8.73202380094968 19.89242391501798 3.6164485148055614 1.2054828382685199 1.2054828382685199 0.0 0.0 0.49259387534365895 0.8702593142126752
67 60.04794769544753 1.9102362325117899 15.060468264443076 3.6164485148055614 1.2054828382685199 1.2054828382685199 0.0 -0.0 0.7991221049958454 0.6011687461162707
68 32.09969605587766 18.993250722306914 9.163457428404477 3.6527944266306136 1.2175981422102111 1.2175981422102111 0.0 -0.0 0.8113628171424923 0.5845428803420658
69 44.106470535602334 0.4486819096764343 54.94883656415052 3.6527944266306136 1.2175981422102111 1.2175981422102111 0.0 0.0 0.69974083585519 0.7143967823532522
70 41.573651071821345 54.47487310441102 25.012375289709976 3.6895056209423975 1.2298352069807916 1.2298352069807916 0.0 -0.0 0.9226100212719841 0.3857340387475665
71 34.25609008889843 19.72230896695427 29.055932609381188 3.6895056209423975 1.2298352069807916 1.2298352069807916 0.0 -0.0 0.8908476943010929 0.4543020862360491
72 0.4134023433150541 48.794994987009225 6.585643641191542 3.726585768890861 1.2421952562969454 1.2421952562969454 0.0 -0.0 0.9180976465577227 0.39635427509384946
73 58.67644123250691 10.563524575192513 41.984731383432454 3.726585768890861 1.2421952562969454 1.2421952562969454 0.0 0.0 0.6852526383261238 0.7283054453092375
74 8.03935988885712 39.74097860543086 19.760207651368507 3.764038578521681 1.254679526173897 1.254679526173897 0.0 0.0 0.6622208999947843 0.7493086677799063
75 53.22869805567414 15.580218744295834 27.951380704206095 3.764038578521681 1.254679526173897 1.254679526173897 0.0 0.0 0.6669694181073614 0.7450850926636016
76 7.6119086626420485 16.5853907104982 16.273704263369826 3.8018677951470576 1.267289265049028 1.267289265049028 0.0 0.0 0.4849872773235938 0.8745212066235144
77 12.751617779341215 1.2679895368940222 5.7921948010181845 3.8018677951470576 1.267289265049028 1.267289265049028 0.0 -0.0 0.724549744492829 0.6892225096116464
78 8.9673023669491 3.0766744032843603 6.221264875827234 3.84007720172021 1.2800257339067367 1.2800257339067367 0.0 0.0 0.646327957303847 0.7630597431442944
79 1.050657905547944 27.39786642955885 14.6457870901366 3.84007720172021 1.2800257339067367 1.2800257339067367 0.0 0.0 0.4210348644808628 0.9070444547493698
80 55.08112965720769 14.049656662556538 20.07288417465069 3.8786706192136 1.2928902064045318 1.2928902064045318 0.0 0.0 0.5786941501693628 0.8155446527074768
81 8.57257858617587 6.524372077242986 44.67425124308476 3.8786706192136 1.2928902064045318 1.2928902064045318 0.0 0.0 0.683142879342022 0.730284743373632
82 17.77214522907937 3.3076361990053935 0.17251847211943228 3.9176519070011393 1.3058839690003772 1.3058839690003772 0.0 0.0 0.3480344086077516 0.937481760049257
83 20.579314105448617 10.153962344495186 60.87093166203683 3.9176519070011393 1.3058839690003772 1.3058839690003772 0.0 -0.0 0.8280938516825816 0.560589486884571
84 33.550545173788414 38.57412073223378 20.194159111853793 3.9570249632441397 1.3190083210813806 1.3190083210813806 0.0 -0.0 0.8521868438699086 0.5232375972109076
85 10.586057786985865 39.47977656956861 23.453848432044655 3.9570249632441397 1.3190083210813806 1.3190083210813806 0.0 0.0 0.2683204071818837 0.9633297250109892
86 12.236828643064666 30.08550441363005 59.792215107968254 3.9967937252809347 1.332264575093656 1.332264575093656 0.0 0.0 0.5717525694490604 0.8204261083902665
87 27.443970230007462 12.504841604590354 38.01214544976291 3.9967937252809347 1.332264575093656 1.332264575093656 0.0 -0.0 0.7407334016199733 0.6717990977401677
88 16.327261224103953 34.44874540666222 53.73604575736941 4.036962170020965 1.3456540566736523 1.3456540566736523 0.0 0.0 0.6524446383875427 0.7578363898885753
89 10.708731010011311 23.04672208116977 31.670777389014678 4.036962170020965 1.3456540566736523 1.3456540566736523 0.0 0.0 0.3815125934194192 0.9243636411404275
90 20.354382310459542 0.8830414354808974 46.781625305555124 4.077534314342142 1.3591781047807128 1.3591781047807128 0.0 -0.0 0.7664413141092511 0.642314340511314
91 30.082715154090188 10.993230933848244 37.096706618165655 4.077534314342142 1.3591781047807128 1.3591781047807128 0.0 -0.0 0.7164030651197486 0.6976866404676452
92 53.53129209573392 34.17893231887351 38.33389355521698 4.118514215492708 1.3728380718309003 1.3728380718309003 0.0 0.0 0.3159382626609752 0.9487797500931208
93 17.408379881406926 34.86857755023401 40.21906668779668 4.118514215492708 1.3728380718309003 1.3728380718309003 0.0 -0.0 0.807675111463051 0.5896277760783901
94 48.734478915004786 11.367343819217691 49.512350448990055 4.15990597149695 1.3866353238323184 1.3866353238323184 0.0 0.0 0.5856043209472178 0.8105970511221638
95 37.66333947105363 17.912909687363783 50.545592844558755 4.15990597149695 1.3866353238323184 1.3866353238323184 0.0 -0.0 0.8283891439806925 0.5601530381377355
96 35.72967227985837 11.01065011209986 41.94572991470823 4.201713721564889 1.4005712405216413 1.4005712405216413 0.0 0.0 0.6380161188650698 0.7700230074928626
97 18.89801206644534 20.131402503583164 25.189788162121157 4.201713721564889 1.4005712405216413 1.4005712405216413 0.0 0.0 0.5652655734899162 0.8249089837231233
98 26.78261794325077 18.538604127353242 38.51830203409686 4.243941646506463 1.4146472155021628 1.4146472155021628 0.0 -0.0 0.9884337224668884 0.15165347437579585
99 50.32544890153838 30.090753281178852 8.307546908028629 4.243941646506463 1.4146472155021628 1.4146472155021628 0.0 0.0 0.644584962479319 0.7645326848117973
100 34.49398050717063 34.908771782651534 51.26373199180225 4.2865939691493455 1.4288646563831071 1.4288646563831071 0.0 -0.0 0.7665764345255346 0.6421530736748979
101 24.822014671942675 34.083371211640106 1.1932278791701343 4.2865939691493455 1.4288646563831071 1.4288646563831071 0.0 -0.0 0.7486465484609144 0.6629693397718779
102 43.13844455147392 41.08064671286632 10.413322133586185 4.329674954761271 1.4432249849204228 1.4432249849204228 0.0 -0.0 0.764238184631255 0.644934102952793
103 31.04486911782116 28.868767123759564 16.404498703346878 4.329674954761271 1.4432249849204228 1.4432249849204228 0.0 -0.0 0.7262700822056904 0.6874094614514261
104 47.13731690470893 47.56724202006205 38.90944313520585 4.373188911476788 1.4577296371589143 1.4577296371589143 0.0 0.0 0.6864264585310771 0.7271992278794606
105 16.188285098880915 8.11769925305521 23.990484228696598 4.373188911476788 1.4577296371589143 1.4577296371589143 0.0 -0.0 0.8498704758576332 0.5269916263713497
106 15.854284504052124 5.026810938901534 56.05110773355341 4.41714019072774 1.472380063575914 1.472380063575914 0.0 -0.0 0.793590538753224 0.6084521811953406
107 47.33537718630369 50.73230951503401 20.013852994482804 4.41714019072774 1.472380063575914 1.472380063575914 0.0 -0.0 0.8299364941277125 0.5578578812878792
108 59.41903347801237 59.51831070536494 4.156207586474443 4.461533187678759 1.4871777292262398 1.4871777292262398 0.0 -0.0 0.7596155095013813 0.650372414640225
109 16.31317759687709 2.9036933798074447 42.90941801774013 4.461533187678759 1.4871777292262398 1.4871777292262398 0.0 -0.0 0.746179639226726 0.6657446552571586
110 27.887408996985148 56.384175956812264 45.989363484779496 4.506372341666481 1.5021241138888128 1.5021241138888128 0.0 -0.0 0.7434755474029917 0.6687631198068729
111 37.081420010254895 50.3109409069902 17.26440713481371 4.506372341666481 1.5021241138888128 1.5021241138888128 0.0 -0.0 0.7635489887521677 0.6457499065238353
112 47.17834763092876 59.7340743529 35.34344822770518 4.551662136643665 1.5172207122145691 1.5172207122145691 0.0 -0.0 0.925703395166632 0.3782502137170186
113 13.471260732618536 13.28182666901585 26.685020410554188 4.551662136643665 1.5172207122145691 1.5172207122145691 0.0 -0.0 0.7476030998596368 0.6641457709571461
114 57.201418737939996 11.649263599867261 36.4671762174072 4.597407101627622 1.5324690338758746 1.5324690338758746 0.0 -0.0 0.7095009508808979 0.7047044775642494
115 24.086759057623823 38.11029001845767 58.671686877825515 4.597407101627622 1.5324690338758746 1.5324690338758746 0.0 0.0 0.692332939305712 0.7215782016887105
116 18.863815748818887 31.51535042904039 48.96954245338974 4.643611811152937 1.5478706037176369 1.5478706037176369 0.0 0.0 0.4838188577050026 0.8751681626573412
117 58.623215559116815 41.00759095936932 38.73772118205699 4.643611811152937 1.5478706037176369 1.5478706037176369 0.0 0.0 0.4072390243389004 0.9133216175343166
118 47.026183615479816 0.33448258514672935 4.411761130874832 4.690280885729017 1.5634269619096737 1.5634269619096737 0.0 -0.0 0.9854258972554679 0.17010526452245991
119 25.607188741129974 43.53228829050039 2.3371050757995167 4.690280885729017 1.5634269619096737 1.5634269619096737 0.0 0.0 0.693566054094668 0.720393037589587
120 45.637607153924705 51.98527864163042 35.27281670278371 4.7374189923022705 1.5791396641007582 1.5791396641007582 0.0 -0.0 0.8546373086497397 0.5192254526349123
121 59.05566032522123 12.044794131763789 0.7341800914382106 4.7374189923022705 1.5791396641007582 1.5791396641007582 0.0 -0.0 0.738138054050796 0.6746496966293722
122 39.98536334667637 38.078784891289665 46.076406676994594 4.785030844722644 1.5950102815742198 1.5950102815742198 0.0 0.0 0.30497028615780525 0.9523618663936657
123 48.12868917176336 35.80719057595121 40.63717071580665 4.785030844722644 1.5950102815742198 1.5950102815742198 0.0 -0.0 0.8240326158671573 0.5665423620411186
124 38.26306186304645 53.03722256772966 0.6584799086747324 4.833121204215035 1.6110404014050046 1.6110404014050046 0.0 -0.0 0.7351480847541838 0.6779065521753388
125 29.488915174127023 43.71422853065908 42.789529113149456 4.833121204215035 1.6110404014050046 1.6110404014050046 0.0 0.0 0.6354145425399089 0.7721711980699606
126 22.515195311991654 22.74050462971556 40.00902245449763 4.881694879855426 1.6272316266184632 1.6272316266184632 0.0 -0.0 0.9631928649301144 0.2688112812880415
127 2.345667752793546 30.89333301250903 47.298784359894135 4.881694879855426 1.6272316266184632 1.6272316266184632 0.0 0.0 0.6645731125154195 0.7472232451694524
128 24.25745823963755 53.58382397099611 46.84869266351925 4.930756729051849 1.6435855763506144 1.6435855763506144 0.0 -0.0 0.837305869343264 0.5467347447925007
129 54.53386266466279 28.857918778902075 52.948087677221075 4.930756729051849 1.6435855763506144 1.6435855763506144 0.0 0.0 0.6718759690179156 0.7406636768846148
130 32.12204108109037 43.482404769362894 5.258276730086726 4.9803116580302405 1.6601038860100723 1.6601038860100723 0.0 -0.0 0.8172568989423515 0.5762735124323614
131 12.151747696210755 27.615949847723076 52.45492853743738 4.9803116580302405 1.6601038860100723 1.6601038860100723 0.0 0.0 0.5650588956672867 0.8250505708302167
132 35.529308028235384 34.482495183033265 0.14990833398040088 5.030364622324679 1.6767882074415452 1.6767882074415452 0.0 0.0 0.5632303093681869 0.8262999568008076
133 17.77847660991483 55.05418442925748 38.73090736737826 5.030364622324679 1.6767882074415452 1.6767882074415452 0.0 0.0 0.7047758212396541 0.7094300823872436
134 47.84225411226129 27.549301412770376 42.896237230092474 5.080920627273311 1.693640209091094 1.693640209091094 0.0 -0.0 0.7457546235329385 0.6662207152882933
135 1.3044971870244373 53.18733897586005 1.520336529310315 5.080920627273311 1.693640209091094 1.693640209091094 0.0 0.0 0.5807371118896761 0.8140911539097067
136 17.09599816660212 59.06587798925451 58.65375922378369 5.131984728518814 1.7106615761729427 1.7106615761729427 0.0 -0.0 0.7765636880913803 0.6300387593933514
137 54.696445835170344 28.962775417016154 29.199938054473144 5.131984728518814 1.7106615761729427 1.7106615761729427 0.0 -0.0 0.9207785641385271 0.39008567754147583
138 35.51411878655598 41.59836287378925 12.701221070685328 5.183562032513799 1.7278540108379363 1.7278540108379363 0.0 0.0 0.5933031767685688 0.8049790931672228
139 52.11031210522902 13.811864696640495 3.826953023068251 5.183562032513799 1.7278540108379363 1.7278540108379363 0.0 0.0 0.36293328461656904 0.9318151270061183
140 9.769316899435331 53.6659985890148 27.814154208674307 5.235657697031759 1.7452192323439133 1.7452192323439133 0.0 0.0 0.5657838974393875 0.8245535649054563
141 54.754118604844 35.16835537815602 2.4598380466690344 5.235657697031759 1.7452192323439133 1.7452192323439133 0.0 0.0 0.5898626798291705 0.8075035720941112
142 0.5732124146691202 30.009721579199585 8.682531145961839 5.288276931682389 1.762758977227475 1.762758977227475 0.0 0.0 0.494526605223718 0.8691624915548904
143 30.635800990122007 6.85175657809739 4.991956579319802 5.288276931682389 1.762758977227475 1.762758977227475 0.0 0.0 0.6621201748514545 0.7493976741721844
144 17.733045495006543 27.11322618787966 44.6247291302035 5.341424998433157 1.7804749994777265 1.7804749994777265 0.0 -0.0 0.8358120424685423 0.5490156916378287
145 59.69586267476874 39.24289828797599 19.30108406078328 5.341424998433157 1.7804749994777265 1.7804749994777265 0.0 -0.0 0.7380766977143534 0.6747168208152773
146 32.59562957762053 48.79299453441504 51.22541570813207 5.395107212134979 1.7983690707116604 1.7983690707116604 0.0 0.0 0.5600689403365469 0.8284460043179022
147 40.25977997993595 20.6269976362261 45.08422599102447 5.395107212134979 1.7983690707116604 1.7983690707116604 0.0 -0.0 0.8053653384335279 0.5927787712543771
148 7.060460681192405 38.86844860800101 49.910989929542765 5.449328941053936 1.8164429803512971 1.8164429803512971 0.0 -0.0 0.9475491048281723 0.31961022189430877
149 1.041338220168163 29.1697064416617 27.13194672432379 5.449328941053936 1.8164429803512971 1.8164429803512971 0.0 -0.0 0.8855269061838191 0.46458809543994295
150 37.84020253124073 8.59345575090445 7.394439375389657 5.504095607408128 1.8346985358027113 1.8346985358027113 0.0 -0.0 0.8997163709941051 0.43647502994466686
151 32.50439436098453 32.82830839422478 42.061467550581455 5.504095607408128 1.8346985358027113 1.8346985358027113 0.0 0.0 0.6949034215940625 0.7191030765174521
152 51.64872483283281 47.33560964028851 8.490545214184607 5.559412687909808 1.8531375626365858 1.8531375626365858 0.0 0.0 0.6496096252583186 0.7602679361723385
153 30.099636738718626 53.49717179618331 7.844149027432115 5.559412687909808 1.8531375626365858 1.8531375626365858 0.0 0.0 0.6980264017745981 0.7160720232110785
154 57.474678633486526 20.73045972490224 7.7393207334897145 5.615285714313118 1.8717619047710472 1.8717619047710472 0.0 -0.0 0.9126309719920443 0.4087844284716046
155 14.542377788021494 41.86440084539613 3.78828755638784 5.615285714313118 1.8717619047710472 1.8717619047710472 0.0 0.0 0.34897032679986184 0.9371337743423815
156 21.401179282980742 27.06905259712021 55.77746475339518 5.6717202739672885 1.8905734246557768 1.8905734246557768 0.0 0.0 0.6995675014656925 0.7145665195718649
157 22.941236262065317 37.415600695755145 45.45532407766302 5.6717202739672885 1.8905734246557768 1.8905734246557768 0.0 0.0 0.63565327495599 0.7719746848425306
158 43.54956319492015 8.885304681040715 39.396243260662786 5.728722010375334 1.9095740034584385 1.9095740034584385 0.0 -0.0 0.7426985308561326 0.6696259345814963
159 9.69842567650937 11.8216107396293 11.062220743078225 5.728722010375334 1.9095740034584385 1.9095740034584385 0.0 0.0 0.4891044501540252 0.8722252213961303
160 50.44195250704848 42.29637622760555 20.302435053498538 5.786296623758366 1.928765541252788 1.928765541252788 0.0 0.0 0.6466947184788655 0.7627489371290798
161 32.99418826405279 17.131774076201268 36.679574785335255 5.786296623758366 1.928765541252788 1.928765541252788 0.0 0.0 0.6377575578887067 0.7702371695496348
162 18.521493013665015 9.70241818326752 17.51627988286936 5.844449871625705 1.9481499572085692 1.9481499572085692 0.0 0.0 0.6701572236966805 0.7422191694689361
163 38.59751112564147 48.555868261107115 33.5866115519058 5.844449871625705 1.9481499572085692 1.9481499572085692 0.0 -0.0 0.7797338016261434 0.6261111711203069
164 52.93177458447234 39.978610933124536 35.665984079480495 5.903187569350561 1.96772918978352 1.96772918978352 0.0 0.0 0.6966086930688543 0.7174512727293072
165 35.29129597697932 22.272382618952278 41.584383762214756 5.903187569350561 1.96772918978352 1.96772918978352 0.0 -0.0 0.8994069955971553 0.43711217813153935
7_B 44.14605839069257 62.41376680059845 24.587866044665258 2.128659568400479 0.709553189466828 0.709553189466828 0.0 -0.0 0.7603958793842515 0.6494598575858641
9_T 48.3462000303528 -0.850372251760092 54.48853123041023 2.171661344142947 0.7238871147143171 0.7238871147143171 0.0 -0.0 0.7176002965020949 0.6964551776389529
10_B 17.91315906283491 61.41867786888285 13.805145644882083 2.1934869035017988 0.7311623011672707 0.7311623011672707 0.0 0.0 0.38534345666417513 0.9227732226317065
12_B 7.075848561413078 62.20076497158317 21.075110250216575 2.2377982782836807 0.7459327594278888 0.7459327594278888 0.0 0.0 0.2746680171135514 0.9615391205639581
22_L -1.299103013306599 52.958058575374984 51.359861408514696 2.4731495776788557 0.8243831925596247 0.8243831925596247 0.0 -0.0 0.8910647246123514 0.45387625687131333
25_B 14.06791109636567 63.08748380111835 8.212813410742113 2.548468195464428 0.849489398488138 0.849489398488138 0.0 0.0 0.6637035342538496 0.7479957343587923
43_T 54.73715148877638 -0.3922598382169298 29.842342596504615 3.051070372973688 1.0170234576579065 1.0170234576579065 0.0 -0.0 0.8971229945165649 0.4417808650333688
48_B 52.670834101458574 63.1519534121388 22.471754032181305 3.2075020961164706 1.0691673653721578 1.0691673653721578 0.0 0.0 0.43861391052531945 0.8986756019241242
52_B 36.4457294925481 63.71801173881758 21.94209231514275 3.338402739882671 1.1128009132942287 1.1128009132942287 0.0 -0.0 0.8312938914163103 0.5558331279205367
57_B 51.81808461832223 63.622421330987095 47.422741440624456 3.4400722394749383 1.1466907464916503 1.1466907464916503 0.0 0.0 0.6906372933410847 0.7232013060320761
67_LT -0.8520523045524655 1.9102362325117899 15.060468264443076 3.6164485148055614 1.2054828382685199 1.2054828382685199 0.0 -0.0 0.7991221049958454 0.6011687461162707
67_LB -0.8520523045524655 62.81023623251179 15.060468264443076 3.6164485148055614 1.2054828382685199 1.2054828382685199 0.0 -0.0 0.7991221049958454 0.6011687461162707
67_RB 60.04794769544753 62.81023623251179 15.060468264443076 3.6164485148055614 1.2054828382685199 1.2054828382685199 0.0 -0.0 0.7991221049958454 0.6011687461162707
69_B 44.106470535602334 61.34868190967643 54.94883656415052 3.6527944266306136 1.2175981422102111 1.2175981422102111 0.0 0.0 0.69974083585519 0.7143967823532522
72_R 61.313402343315055 48.794994987009225 6.585643641191542 3.726585768890861 1.2421952562969454 1.2421952562969454 0.0 -0.0 0.9180976465577227 0.39635427509384946
77_B 12.751617779341215 62.16798953689402 5.7921948010181845 3.8018677951470576 1.267289265049028 1.267289265049028 0.0 -0.0 0.724549744492829 0.6892225096116464
78_B 8.9673023669491 63.976674403284356 6.221264875827234 3.84007720172021 1.2800257339067367 1.2800257339067367 0.0 0.0 0.646327957303847 0.7630597431442944
79_R 61.95065790554794 27.39786642955885 14.6457870901366 3.84007720172021 1.2800257339067367 1.2800257339067367 0.0 0.0 0.4210348644808628 0.9070444547493698
82_Ba 17.77214522907937 3.3076361990053935 61.072518472119434 3.9176519070011393 1.3058839690003772 1.3058839690003772 0.0 0.0 0.3480344086077516 0.937481760049257