ITEM: TIMESTEP
59
ITEM: NUMBER OF ATOMS
172
ITEM: BOX BOUNDS ff ff ff
0 60.9
60.9 0
60.9 0
ITEM: ATOMS id x y z AsphericalShapeX AsphericalShapeY AsphericalShapeZ OrientationX OrientationY OrientationZ OrientationW
1 35.3514729395262 14.912553707417228 2.758769245223373 0.42352734202696996 0.14117578067565656 0.14117578067565656 0.0 -0.0 0.7863642711635499 0.6177630881150306
2 28.68371185846266 60.60243750119056 27.74111838068667 0.4277838625790551 0.14259462085968505 0.14259462085968505 0.0 -0.0 0.8896314041555925 0.4566792799549252
3 19.820271703417273 21.953828305851562 44.87707031335882 0.4320831618738854 0.14402772062462826 0.14402772062462826 0.0 0.0 0.631512325711268 0.7753658378305981
4 39.37113744890997 29.40348852681274 24.010110353042975 0.43642566984497344 0.14547522328165766 0.14547522328165766 0.0 0.0 0.5765741652112841 0.8170448164029381
5 16.35745661960675 28.716374863287253 46.03141235149532 0.4408118207467349 0.14693727358224493 0.14693727358224493 0.0 -0.0 0.8873914294477543 0.4610167577677315
6 19.68975742685513 18.244513927900627 10.883954078630241 0.44524205319791604 0.14841401773263863 0.14841401773263863 0.0 0.0 0.643710445538684 0.7652691437033046
7 60.46288688153457 4.7492466837440634 15.997894904754173 0.4497168102254532 0.14990560340848433 0.14990560340848433 0.0 -0.0 0.7603958793842515 0.6494598575858641
8 45.032154993529055 41.75956240210149 59.02434044979769 0.45423653930877733 0.15141217976959237 0.15141217976959237 0.0 -0.0 0.7854601334426244 0.6189122545016335
9 50.093165409869975 2.4608738299031563 3.439877648861827 0.4588016924245652 0.15293389747485506 0.15293389747485506 0.0 -0.0 0.7176002965020949 0.6964551776389529
10 22.469385573855686 48.67645327122602 8.30836300329055 0.4634127260919312 0.15447090869731017 0.15447090869731017 0.0 0.0 0.38534345666417513 0.9227732226317065
11 35.83319044771692 53.225332053115004 50.49745588414338 0.4680701014180848 0.1560233671393614 0.1560233671393614 0.0 0.0 0.49983922045674145 0.866118209999765
12 22.767435015384546 49.94878906937976 14.053975618543893 0.47277428414443906 0.1575914280481466 0.1575914280481466 0.0 0.0 0.2746680171135514 0.9615391205639581
13 33.565694440186064 52.287660218773745 59.6479318041929 0.4775257446931887 0.15917524823106283 0.15917524823106283 0.0 -0.0 0.7886508549344257 0.614841303924191
14 10.856442394592763 1.7432624782628932 36.15654638059171 0.48232495821434734 0.1607749860714491 0.1607749860714491 0.0 -0.0 0.7750680292508737 0.6318777967559605
15 14.664879618016379 2.5368896189909163 33.675831867003154 0.4871724046332659 0.162390801544422 0.162390801544422 0.0 0.0 0.6340811782098568 0.7732664866913604
16 15.384183209677184 48.64658016218821 44.70361381629792 0.4920685686986255 0.1640228562328751 0.1640228562328751 0.0 -0.0 0.7629176367612683 0.6464956918020424
17 35.640380613641575 41.15442022241022 31.692613695376004 0.49701394003091476 0.16567131334363788 0.16567131334363788 0.0 0.0 0.6579222258448839 0.7530858813836
18 9.795022499795067 49.74743857635097 48.69369595436852 0.5020090131713865 0.16733633772379522 0.16733633772379522 0.0 0.0 0.506211649243881 0.8624092799650234
19 3.659269706370078 12.206082648712052 46.17702289536284 0.5070542876315168 0.169018095877172 0.169018095877172 0.0 0.0 0.6434542777811493 0.7654845474633303
20 20.869760655132723 1.1332029544051037 11.54354180114708 0.5121502679429565 0.17071675598098537 0.17071675598098537 0.0 -0.0 0.7861857262579329 0.6179902942832407
21 30.418381737643344 31.582704000242895 45.32514789741855 0.517297463707985 0.17243248790266172 0.17243248790266172 0.0 0.0 0.6069811502172251 0.7947162281474907
22 28.76553246381532 6.488141078173022 16.74456918308332 0.5224963896504663 0.1741654632168221 0.1741654632168221 0.0 -0.0 0.8910647246123514 0.45387625687131333
23 46.62504894515329 52.43648465414025 33.249928577009335 0.5277475656673278 0.17591585522244277 0.17591585522244277 0.0 -0.0 0.7582829367961579 0.651925599868416
24 23.097925507726238 46.260956658450816 44.3670617670683 0.5330515168805471 0.17768383896018247 0.17768383896018247 0.0 0.0 0.5255054740936084 0.8507902189715464
25 59.47063462721391 17.569373862779596 34.41818920947643 0.5384087736896656 0.1794695912298884 0.1794695912298884 0.0 0.0 0.6637035342538496 0.7479957343587923
26 54.239887542101776 34.66941278173517 18.690598305923622 0.5438198718248287 0.1812732906082765 0.1812732906082765 0.0 0.0 0.5361151400853296 0.8441448670526212
27 57.133064589632625 42.26585679810517 58.617137993045986 0.5492853524003593 0.18309511746678622 0.18309511746678622 0.0 -0.0 0.7297620279401082 0.6837012378054764
28 44.87652768500607 24.273054919021977 32.778814828934465 0.5548057619688691 0.18493525398962313 0.18493525398962313 0.0 -0.0 0.9828164757017253 0.18458541407500267
29 41.90791444301346 43.531627450866985 21.062997954132552 0.5603816525759148 0.18679388419197154 0.18679388419197154 0.0 -0.0 0.8740853421614372 0.4857723897243679
30 13.93448572661422 20.58131500820815 38.67842995196579 0.5660135818152057 0.1886711939384016 0.1886711939384016 0.0 -0.0 0.8433777540022546 0.5373210995802349
31 23.18372656276649 40.393054438452694 35.87483960230506 0.571702112884356 0.19056737096145196 0.19056737096145196 0.0 0.0 0.6952778540174372 0.7187410560924617
32 27.832398687918523 31.146257256959082 47.9539444474172 0.577447814641216 0.19248260488040556 0.19248260488040556 0.0 0.0 0.6353234605105568 0.7722461398575527
33 21.08458186727407 22.633083909870592 17.945131111963143 0.5832512616607471 0.19441708722024945 0.19441708722024945 0.0 0.0 0.6411270229476993 0.7674347792784871
34 9.958195776313223 19.340529938560994 16.7980970722954 0.5891130342924898 0.19637101143082974 0.19637101143082974 0.0 -0.0 0.7453722743584635 0.6666484625480594
35 26.61572390620822 21.78720254238682 51.25273363985357 0.595033718718591 0.19834457290619661 0.19834457290619661 0.0 -0.0 0.7109313362059317 0.7032614273514853
36 14.721229429655615 58.40866998184947 37.89143542796146 0.6010139070124262 0.20033796900414222 0.20033796900414222 0.0 -0.0 0.739632735620696 0.6730107104632479
37 52.911051085654044 43.78560001129446 41.3562315705959 0.6070541971978095 0.2023513990659365 0.2023513990659365 0.0 0.0 0.5163603530767541 0.8563714064414165
38 55.552914322879325 29.93827479458477 37.31414302863431 0.6131551933087924 0.20438506443626434 0.20438506443626434 0.0 0.0 0.5145463711011363 0.8574625542766586
39 1.0542122187978205 37.65615036658487 13.572482864182778 0.6193175054500706 0.20643916848335703 0.20643916848335703 0.0 0.0 0.5880831456971182 0.8088004783300898
40 51.8054097118132 6.543871795387505 17.736071915035602 0.6255417498579943 0.2085139166193318 0.2085139166193318 0.0 -0.0 0.8608342640850161 0.5088854191045453
41 19.045183805431556 44.785208416968835 41.155755392961815 0.6318285489621901 0.21060951632073016 0.21060951632073016 0.0 0.0 0.5813114541301716 0.8136811373609846
42 35.44663060985537 23.22873545295814 24.138089725505505 0.6381785314478081 0.21272617714926934 0.21272617714926934 0.0 0.0 0.6858728758951139 0.7277213739552836
43 10.15583357450722 45.97387921570569 46.82957229219548 0.6445923323183874 0.21486411077279557 0.21486411077279557 0.0 -0.0 0.8971229945165649 0.4417808650333688
44 19.739025643718495 46.46040858213095 25.521722133476594 0.6510705929593599 0.21702353098645366 0.21702353098645366 0.0 -0.0 0.7662793896249596 0.6425075073771507
45 49.40103891002719 53.45546680693306 0.9379098304621978 0.6576139612021902 0.2192046537340635 0.2192046537340635 0.0 -0.0 0.8021859139948743 0.5970743332184094
46 30.32812345370855 50.76448126332884 19.625438705580784 0.6642230913891536 0.22140769712971808 0.22140769712971808 0.0 0.0 0.6689296931602822 0.7433256793683982
47 30.910331205485647 55.5154440227881 36.374395669101375 0.6708986444387761 0.22363288147959218 0.22363288147959218 0.0 -0.0 0.8121614142020023 0.5834328044268712
48 24.866147476533428 38.24900392114247 33.56600391998455 0.6776412879119278 0.22588042930397603 0.22588042930397603 0.0 0.0 0.43861391052531945 0.8986756019241242
49 15.65807281043227 29.43202291076561 55.17883852368195 0.6844516960785737 0.22815056535952494 0.22815056535952494 0.0 -0.0 0.7611420715427216 0.6485851886434459
50 26.270760291633664 1.4539200188470423 51.949158666530714 0.6913305499852067 0.23044351666173502 0.23044351666173502 0.0 0.0 0.5689873473401131 0.8223462765568174
51 35.74613786706068 40.17310165429593 43.0799083469332 0.6982785375229472 0.23275951250764915 0.23275951250764915 0.0 -0.0 0.9816329176571261 0.1907794930592849
52 1.5642627472062336 55.96617718493656 58.32679472600908 0.7052963534963403 0.2350987844987801 0.2350987844987801 0.0 -0.0 0.8312938914163103 0.5558331279205367
53 26.981479758954425 20.18518068154501 53.6275808446208 0.7123846996928339 0.23746156656427786 0.23746156656427786 0.0 0.0 0.4937832216878833 0.8695850332081013
54 12.812545401800318 18.129205135932203 15.943560086161199 0.7195442849529505 0.23984809498431725 0.23984809498431725 0.0 -0.0 0.7425013715714329 0.6698445440656666
55 22.06189385594089 46.23405029992484 12.682481139962762 0.7195442849529505 0.23984809498431725 0.23984809498431725 0.0 -0.0 0.899222239431846 0.4374921303419936
56 32.155367221513224 35.62195111848296 0.03628751465952168 0.7267758252411856 0.2422586084137285 0.2422586084137285 0.0 0.0 0.591041689671776 0.8066410112744902
57 47.191725978206726 10.94962628048705 44.93576398974437 0.7267758252411856 0.2422586084137285 0.2422586084137285 0.0 0.0 0.6906372933410847 0.7232013060320761
58 30.37987057165061 21.001266478643025 34.15237107224117 0.7340800437175934 0.24469334790586425 0.24469334790586425 0.0 -0.0 0.9778925487455288 0.20910801779935065
59 32.316633764835046 34.541750712926145 4.63913725029585 0.7340800437175934 0.24469334790586425 0.24469334790586425 0.0 -0.0 0.8334397726994561 0.5526103014626843
60 22.362698915179834 28.355251414468356 35.3702693011794 0.7414576708101086 0.24715255693670282 0.24715255693670282 0.0 -0.0 0.8251393648538317 0.5649292243888745
61 41.63653198424774 18.672952366080317 7.510493939983103 0.7414576708101086 0.24715255693670282 0.24715255693670282 0.0 -0.0 0.8342848482439009 0.5513336485202505
62 43.1282285612115 9.707770224403847 22.79583031762485 0.7489094442875887 0.24963648142919603 0.24963648142919603 0.0 0.0 0.6993489688984815 0.7147803996337831
63 30.694757361644722 35.14668814432178 24.23681689805822 0.7489094442875887 0.24963648142919603 0.24963648142919603 0.0 0.0 0.6638694557235675 0.747848477806363
64 13.350966957452178 40.26899649000664 22.7018561645042 0.7564361093335894 0.2521453697778637 0.2521453697778637 0.0 0.0 0.5469534661185369 0.8371630103515794
65 57.30260557328319 54.20417142777738 37.30847492463315 0.7564361093335894 0.2521453697778637 0.2521453697778637 0.0 0.0 0.534266604389083 0.8453160328744268
66 36.79677263707325 3.014539612662283 24.880040362179393 0.7640384186208916 0.25467947287363 0.25467947287363 0.0 0.0 0.49259387534365895 0.8702593142126752
67 55.045427611552306 7.445997015985625 57.74817252230779 0.7640384186208916 0.25467947287363 0.25467947287363 0.0 -0.0 0.7991221049958454 0.6011687461162707
68 11.41036634289559 40.355874250190595 30.972165808790606 0.771717132386755 0.25723904412891796 0.25723904412891796 0.0 -0.0 0.8113628171424923 0.5845428803420658
69 45.04696061741179 55.84966647337603 28.510138590808825 0.771717132386755 0.25723904412891796 0.25723904412891796 0.0 0.0 0.69974083585519 0.7143967823532522
70 30.384413734038965 24.660850647909392 15.07998481368629 0.7794730185089559 0.25982433950298495 0.25982433950298495 0.0 -0.0 0.9226100212719841 0.3857340387475665
71 5.624959900396944 38.81156537632932 4.897056888399482 0.7794730185089559 0.25982433950298495 0.25982433950298495 0.0 -0.0 0.8908476943010929 0.4543020862360491
72 46.59668039343301 23.081266369613672 11.584090556436223 0.7873068525825705 0.26243561752752403 0.26243561752752403 0.0 -0.0 0.9180976465577227 0.39635427509384946
73 43.949500446093744 37.23933852321132 29.293803953701687 0.7873068525825705 0.26243561752752403 0.26243561752752403 0.0 0.0 0.6852526383261238 0.7283054453092375
74 60.30973066898838 19.064656439581665 25.342969821855164 0.7952194179975368 0.26507313933251236 0.26507313933251236 0.0 0.0 0.6622208999947843 0.7493086677799063
75 37.443146237794366 27.079968088721387 50.99675831535052 0.7952194179975368 0.26507313933251236 0.26507313933251236 0.0 0.0 0.6669694181073614 0.7450850926636016
76 14.5950693576995 0.3507409745687933 10.625011445056579 0.8032115060169858 0.26773716867232855 0.26773716867232855 0.0 0.0 0.4849872773235938 0.8745212066235144
77 40.091497879073934 46.040594059037694 35.056420707934144 0.8032115060169858 0.26773716867232855 0.26773716867232855 0.0 -0.0 0.724549744492829 0.6892225096116464
78 48.308385299402225 28.0758484419489 55.41787810976565 0.8112839158563825 0.27042797195212753 0.27042797195212753 0.0 0.0 0.646327957303847 0.7630597431442944
79 24.992452449848074 58.841357108427026 58.503443778698006 0.8112839158563825 0.27042797195212753 0.27042797195212753 0.0 0.0 0.4210348644808628 0.9070444547493698
80 22.729607563849086 48.79428434934029 38.23624312268304 0.819437454763437 0.2731458182544792 0.2731458182544792 0.0 0.0 0.5786941501693628 0.8155446527074768
81 13.97284871606741 32.92308804826924 28.8172769463566 0.819437454763437 0.2731458182544792 0.2731458182544792 0.0 0.0 0.683142879342022 0.730284743373632
82 42.292180157924456 53.744235393465196 40.45627417249181 0.827672938098835 0.2758909793662788 0.2758909793662788 0.0 0.0 0.3480344086077516 0.937481760049257
83 24.655319254829426 7.750769010870107 52.93023808850753 0.827672938098835 0.2758909793662788 0.2758909793662788 0.0 -0.0 0.8280938516825816 0.560589486884571
84 53.224924660377944 3.328050033590815 7.42438469842789 0.8359911894177723 0.27866372980592435 0.27866372980592435 0.0 -0.0 0.8521868438699086 0.5232375972109076
85 55.203072402678 43.67038702365861 58.85748181983096 0.8359911894177723 0.27866372980592435 0.27866372980592435 0.0 0.0 0.2683204071818837 0.9633297250109892
86 52.97783520375506 29.966089321399316 4.77019307180766 0.844393040552313 0.28146434685077126 0.28146434685077126 0.0 0.0 0.5717525694490604 0.8204261083902665
87 47.53522756318264 39.96496184732498 47.93091905847645 0.844393040552313 0.28146434685077126 0.28146434685077126 0.0 -0.0 0.7407334016199733 0.6717990977401677
88 12.791816851052431 18.715347063346723 54.63163466260233 0.852879331694572 0.28429311056485795 0.28429311056485795 0.0 0.0 0.6524446383875427 0.7578363898885753
89 21.610734843183632 1.4117617192789813 49.504539042957106 0.852879331694572 0.28429311056485795 0.28429311056485795 0.0 0.0 0.3815125934194192 0.9243636411404275
90 33.26714679823157 39.52406084054517 35.249720931247026 0.8614509114807375 0.28715030382691265 0.28715030382691265 0.0 -0.0 0.7664413141092511 0.642314340511314
91 54.56049325089819 32.413730707731446 30.94700190088477 0.8614509114807375 0.28715030382691265 0.28715030382691265 0.0 -0.0 0.7164030651197486 0.6976866404676452
92 41.20159943981906 59.52846897749956 36.65967011278433 0.8701086370759263 0.29003621235864274 0.29003621235864274 0.0 0.0 0.3159382626609752 0.9487797500931208
93 24.87714618973892 20.495845498916395 23.022119447179797 0.8701086370759263 0.29003621235864274 0.29003621235864274 0.0 -0.0 0.807675111463051 0.5896277760783901
94 22.044275074688418 19.976893803261756 1.5325226035275876 0.8788533742599185 0.29295112475330587 0.29295112475330587 0.0 0.0 0.5856043209472178 0.8105970511221638
95 28.317044911152053 47.13728236481095 54.0272211224037 0.8788533742599185 0.29295112475330587 0.29295112475330587 0.0 -0.0 0.8283891439806925 0.5601530381377355
96 25.197719468843797 41.50373821634968 33.05268705898324 0.8876859975137149 0.2958953325045713 0.2958953325045713 0.0 0.0 0.6380161188650698 0.7700230074928626
97 36.011845795053596 55.478758679980494 18.702557362484708 0.8876859975137149 0.2958953325045713 0.2958953325045713 0.0 0.0 0.5652655734899162 0.8249089837231233
98 15.870863702815422 9.11779561482988 19.069279365265707 0.8966073901070044 0.298869130035668 0.298869130035668 0.0 -0.0 0.9884337224668884 0.15165347437579585
99 52.524866929080595 26.35776202952189 55.67008579739911 0.8966073901070044 0.298869130035668 0.298869130035668 0.0 0.0 0.644584962479319 0.7645326848117973
100 33.338661480394435 39.55420281701655 33.750553599926484 0.9056184441864774 0.30187281472882627 0.30187281472882627 0.0 -0.0 0.7665764345255346 0.6421530736748979
101 25.99330793700623 42.74669462352046 7.660272316295137 0.9056184441864774 0.30187281472882627 0.30187281472882627 0.0 -0.0 0.7486465484609144 0.6629693397718779
102 7.088726642998983 20.57264534151901 36.12363232282064 0.914720060865058 0.3049066869550188 0.3049066869550188 0.0 -0.0 0.764238184631255 0.644934102952793
103 36.38287094305242 15.965595546017951 40.35311921074238 0.914720060865058 0.3049066869550188 0.3049066869550188 0.0 -0.0 0.7262700822056904 0.6874094614514261
104 20.154499813921785 33.90123041574372 15.172867442574793 0.9239131503119903 0.3079710501039969 0.3079710501039969 0.0 0.0 0.6864264585310771 0.7271992278794606
105 55.00878324603733 44.81367978887908 11.371917780517968 0.9239131503119903 0.3079710501039969 0.3079710501039969 0.0 -0.0 0.8498704758576332 0.5269916263713497
106 48.51018070091952 40.6364360371789 36.42894038793159 0.9331986318438851 0.31106621061462875 0.31106621061462875 0.0 -0.0 0.793590538753224 0.6084521811953406
107 32.64978627172619 32.07282732933707 30.66173031949537 0.9331986318438851 0.31106621061462875 0.31106621061462875 0.0 -0.0 0.8299364941277125 0.5578578812878792
108 53.132471717685355 21.69671579757615 41.64845336149722 0.9425774340166332 0.31419247800554484 0.31419247800554484 0.0 -0.0 0.7596155095013813 0.650372414640225
109 44.475105987178374 19.255171986175682 54.948884075882624 0.9425774340166332 0.31419247800554484 0.31419247800554484 0.0 -0.0 0.746179639226726 0.6657446552571586
110 25.56559288983157 7.299460335958237 52.666922335225244 0.9520504947182681 0.31735016490608936 0.31735016490608936 0.0 -0.0 0.7434755474029917 0.6687631198068729
111 35.65445108273606 44.37039607614934 53.2088352279959 0.9520504947182681 0.31735016490608936 0.31735016490608936 0.0 -0.0 0.7635489887521677 0.6457499065238353
112 44.865265994090784 38.91769701106086 17.82543637465862 0.9616187612627497 0.320539587087583 0.320539587087583 0.0 -0.0 0.925703395166632 0.3782502137170186
113 49.3528371095674 39.550152405746125 20.190389584208805 0.9616187612627497 0.320539587087583 0.320539587087583 0.0 -0.0 0.7476030998596368 0.6641457709571461
114 18.44505669097883 55.94394042168996 29.81213072693683 0.9712831904847102 0.32376106349490386 0.32376106349490386 0.0 -0.0 0.7095009508808979 0.7047044775642494
115 52.45263923403776 43.05316240345224 33.829285153398416 0.9712831904847102 0.32376106349490386 0.32376106349490386 0.0 0.0 0.692332939305712 0.7215782016887105
116 18.3378704111551 15.665101766535905 6.991686800410331 0.9810447488351277 0.3270149162783761 0.3270149162783761 0.0 0.0 0.4838188577050026 0.8751681626573412
117 25.868668168618136 1.4931106987067975 20.404674923797042 0.9810447488351277 0.3270149162783761 0.3270149162783761 0.0 0.0 0.4072390243389004 0.9133216175343166
118 27.98675171120361 52.664481059392564 12.860381168379476 0.9909044124779661 0.3303014708259887 0.3303014708259887 0.0 -0.0 0.9854258972554679 0.17010526452245991
119 26.22109944648155 57.08767942419252 56.08244155163112 0.9909044124779661 0.3303014708259887 0.3303014708259887 0.0 0.0 0.693566054094668 0.720393037589587
120 15.18898830694829 27.451328407622576 3.5810200806281234 1.0008631673878086 0.3336210557959362 0.3336210557959362 0.0 -0.0 0.8546373086497397 0.5192254526349123
121 11.295001029290122 26.39294910392074 5.781136658442882 1.0008631673878086 0.3336210557959362 0.3336210557959362 0.0 -0.0 0.738138054050796 0.6746496966293722
122 35.01329839797626 2.9988711434264386 48.27324465388498 1.010922009448445 0.33697400314948156 0.33697400314948156 0.0 0.0 0.30497028615780525 0.9523618663936657
123 4.550629850090239 26.962938338468007 15.098956046291118 1.010922009448445 0.33697400314948156 0.33697400314948156 0.0 -0.0 0.8240326158671573 0.5665423620411186
124 57.73659151687048 21.614530973954647 43.68838407766933 1.0210819445524646 0.3403606481841549 0.3403606481841549 0.0 -0.0 0.7351480847541838 0.6779065521753388
125 12.297290312202183 28.42887222324827 58.381223591385336 1.0210819445524646 0.3403606481841549 0.3403606481841549 0.0 0.0 0.6354145425399089 0.7721711980699606
126 15.081461213028737 53.304448425644985 27.04074109454613 1.0313439887018432 0.343781329567281 0.343781329567281 0.0 -0.0 0.9631928649301144 0.2688112812880415
127 53.525530226831705 42.502344510617185 36.73228678621068 1.0313439887018432 0.343781329567281 0.343781329567281 0.0 0.0 0.6645731125154195 0.7472232451694524
128 27.420154658948476 19.972363269628204 29.904897648998976 1.0417091681095487 0.3472363893698502 0.3472363893698502 0.0 -0.0 0.837305869343264 0.5467347447925007
129 34.50852230143302 7.428931557797532 57.543429574521795 1.0417091681095487 0.3472363893698502 0.3472363893698502 0.0 0.0 0.6718759690179156 0.7406636768846148
130 1.5637125144338886 39.162203042057605 25.761165723836612 1.0521785193021587 0.3507261731007197 0.3507261731007197 0.0 -0.0 0.8172568989423515 0.5762735124323614
131 36.67994352690664 27.60872619870017 28.806638947795992 1.0521785193021587 0.3507261731007197 0.3507261731007197 0.0 0.0 0.5650588956672867 0.8250505708302167
132 3.4812249154733212 36.06195535894247 36.08431019545831 1.0627530892235184 0.35425102974117273 0.35425102974117273 0.0 0.0 0.5632303093681869 0.8262999568008076
133 31.352110730351626 20.187863659648343 4.480704816144745 1.0627530892235184 0.35425102974117273 0.35425102974117273 0.0 0.0 0.7047758212396541 0.7094300823872436
134 36.65248375613571 14.264948204417026 39.240320687445134 1.07343393533943 0.35781131177980985 0.35781131177980985 0.0 -0.0 0.7457546235329385 0.6662207152882933
135 41.03338468274655 24.216911678414853 30.522150050043322 1.07343393533943 0.35781131177980985 0.35781131177980985 0.0 0.0 0.5807371118896761 0.8140911539097067
136 44.74461405648941 36.968120232604825 31.743391534229946 1.0842221257434077 0.36140737524780225 0.36140737524780225 0.0 -0.0 0.7765636880913803 0.6300387593933514
137 51.59388156180247 0.623495579773534 10.658120322833744 1.0842221257434077 0.36140737524780225 0.36140737524780225 0.0 -0.0 0.9207785641385271 0.39008567754147583
138 22.075177300392337 60.77263860339423 42.17235687223594 1.0951187392634807 0.3650395797544936 0.3650395797544936 0.0 0.0 0.5933031767685688 0.8049790931672228
139 56.85076976807023 22.453008647061775 53.42991252157818 1.0951187392634807 0.3650395797544936 0.3650395797544936 0.0 0.0 0.36293328461656904 0.9318151270061183
140 42.71329251462837 48.45817352020959 44.90303089960907 1.106124865570082 0.36870828852336085 0.36870828852336085 0.0 0.0 0.5657838974393875 0.8245535649054563
141 40.593489203686175 10.258693919201168 35.8621590693074 1.106124865570082 0.36870828852336085 0.36870828852336085 0.0 0.0 0.5898626798291705 0.8075035720941112
142 56.181830276808014 30.12994297224886 36.693611810415305 1.1172416052850143 0.3724138684283376 0.3724138684283376 0.0 0.0 0.494526605223718 0.8691624915548904
143 38.721638383048514 31.654742295147457 20.54063701259919 1.1172416052850143 0.3724138684283376 0.3724138684283376 0.0 0.0 0.6621201748514545 0.7493976741721844
144 60.50384830997311 38.30352783576755 30.206462038236857 1.128470070091513 0.3761566900305035 0.3761566900305035 0.0 -0.0 0.8358120424685423 0.5490156916378287
145 8.312785733076979 8.082312743215239 34.91333459586948 1.128470070091513 0.3761566900305035 0.3761566900305035 0.0 -0.0 0.7380766977143534 0.6747168208152773
146 44.02306189793217 6.396987199469201 47.66064566198758 1.1398113828454146 0.3799371276151387 0.3799371276151387 0.0 0.0 0.5600689403365469 0.8284460043179022
147 40.57754814466264 29.232372200260173 43.39304180586559 1.1398113828454146 0.3799371276151387 0.3799371276151387 0.0 -0.0 0.8053653384335279 0.5927787712543771
148 12.181676951282995 29.008396873152297 54.40584697279417 1.151266677687447 0.38375555922914945 0.38375555922914945 0.0 -0.0 0.9475491048281723 0.31961022189430877
149 36.713867553307075 42.594489943559076 24.70870638096492 1.151266677687447 0.38375555922914945 0.38375555922914945 0.0 -0.0 0.8855269061838191 0.46458809543994295
150 14.654732955278401 29.73153467166473 15.853536747339616 1.1628371001566418 0.3876123667188803 0.3876123667188803 0.0 -0.0 0.8997163709941051 0.43647502994466686
151 28.125785610477045 4.478618426184235 49.80681528609466 1.1628371001566418 0.3876123667188803 0.3876123667188803 0.0 0.0 0.6949034215940625 0.7191030765174521
152 0.40361788727622505 17.434942303277598 13.828721771759632 1.1745238073048827 0.3915079357682952 0.3915079357682952 0.0 0.0 0.6496096252583186 0.7602679361723385
153 53.58932839483576 54.72233768949265 47.40860599904042 1.1745238073048827 0.3915079357682952 0.3915079357682952 0.0 0.0 0.6980264017745981 0.7160720232110785
154 44.926333031303834 40.684156638460216 27.503071224675704 1.1863279678126308 0.3954426559375443 0.3954426559375443 0.0 -0.0 0.9126309719920443 0.4087844284716046
155 20.0814075320192 19.579074204447835 17.026489970927628 1.1863279678126308 0.3954426559375443 0.3954426559375443 0.0 0.0 0.34897032679986184 0.9371337743423815
156 49.42769859487561 12.592131463533065 7.463698290542631 1.1982507621057703 0.3994169207019239 0.3994169207019239 0.0 0.0 0.6995675014656925 0.7145665195718649
157 30.448616076896755 14.631145612472338 41.35819661233006 1.1982507621057703 0.3994169207019239 0.3994169207019239 0.0 0.0 0.63565327495599 0.7719746848425306
158 39.85942976414591 14.090512439369075 19.848404048420758 1.210293382473663 0.4034311274912218 0.4034311274912218 0.0 -0.0 0.7426985308561326 0.6696259345814963
159 13.180909131623007 29.46478748057582 27.955683903907836 1.210293382473663 0.4034311274912218 0.4034311274912218 0.0 0.0 0.4891044501540252 0.8722252213961303
160 46.41048211425389 27.06359514525726 10.892040437040174 1.2224570331883868 0.40748567772946226 0.40748567772946226 0.0 0.0 0.6466947184788655 0.7627489371290798
161 26.393530250584472 19.80387637392117 44.26213548073883 1.2224570331883868 0.40748567772946226 0.40748567772946226 0.0 0.0 0.6377575578887067 0.7702371695496348
162 60.11370203060111 44.20917964871703 58.64509816504958 1.234742930625146 0.4115809768750492 0.4115809768750492 0.0 0.0 0.6701572236966805 0.7422191694689361
163 41.995566190089 26.87543853181418 37.64675044896851 1.234742930625146 0.4115809768750492 0.4115809768750492 0.0 -0.0 0.7797338016261434 0.6261111711203069
164 30.122148552342047 27.55559964223462 25.708689034993085 1.2471523033839245 0.41571743446130777 0.41571743446130777 0.0 0.0 0.6966086930688543 0.7174512727293072
165 53.1220254388318 55.944936499874466 12.227885641580809 1.2471523033839245 0.41571743446130777 0.41571743446130777 0.0 -0.0 0.8994069955971553 0.43711217813153935
2_T 28.68371185846266 -0.29756249880944097 27.74111838068667 0.4277838625790551 0.14259462085968505 0.14259462085968505 0.0 -0.0 0.8896314041555925 0.4566792799549252
56_Ba 32.155367221513224 35.62195111848296 60.93628751465952 0.7267758252411856 0.2422586084137285 0.2422586084137285 0.0 0.0 0.591041689671776 0.8066410112744902
76_B 14.5950693576995 61.25074097456879 10.625011445056579 0.8032115060169858 0.26773716867232855 0.26773716867232855 0.0 0.0 0.4849872773235938 0.8745212066235144
137_B 51.59388156180247 61.52349557977353 10.658120322833744 1.0842221257434077 0.36140737524780225 0.36140737524780225 0.0 -0.0 0.9207785641385271 0.39008567754147583
138_T 22.075177300392337 -0.12736139660577095 42.17235687223594 1.0951187392634807 0.3650395797544936 0.3650395797544936 0.0 0.0 0.5933031767685688 0.8049790931672228
144_L -0.39615169002689044 38.30352783576755 30.206462038236857 1.128470070091513 0.3761566900305035 0.3761566900305035 0.0 -0.0 0.8358120424685423 0.5490156916378287
152_R 61.303617887276225 17.434942303277598 13.828721771759632 1.1745238073048827 0.3915079357682952 0.3915079357682952 0.0 0.0 0.6496096252583186 0.7602679361723385
