ITEM: TIMESTEP
622
ITEM: NUMBER OF ATOMS
253
ITEM: BOX BOUNDS ff ff ff
0 60.9
60.9 0
60.9 0
ITEM: ATOMS id x y z AsphericalShapeX AsphericalShapeY AsphericalShapeZ OrientationX OrientationY OrientationZ OrientationW
1 44.77606724794912 50.017548660001054 22.020898663163987 4.39762556804675 1.4658751893489217 1.4658751893489217 0.0 -0.0 0.7863642711635499 0.6177630881150306
2 5.309111134007129 20.164644545593326 21.734011642414487 4.441822439779213 1.4806074799263742 1.4806074799263742 0.0 -0.0 0.8896314041555925 0.4566792799549252
3 19.49539712553768 12.687162608681387 55.62424011306721 4.486463497457109 1.4954878324857372 1.4954878324857372 0.0 0.0 0.631512325711268 0.7753658378305981
4 16.8390765861259 39.70935084644009 44.654305511534176 4.531553205223639 1.5105177350745622 1.5105177350745622 0.0 0.0 0.5765741652112841 0.8170448164029381
5 40.589389084367696 33.91251614793642 21.241226009154726 4.5770960720869605 1.525698690695658 1.525698690695658 0.0 -0.0 0.8873914294477543 0.4610167577677315
6 24.44182722053486 14.539853680537693 24.90752624703653 4.6230966523717205 1.5410322174572462 1.5410322174572462 0.0 0.0 0.643710445538684 0.7652691437033046
7 19.452286701427226 57.51721465601691 37.587867010869985 4.66955954617429 1.5565198487247531 1.5565198487247531 0.0 -0.0 0.7603958793842515 0.6494598575858641
8 41.50994774775398 36.87280788860508 14.557844995958588 4.716489399822773 1.5721631332742911 1.5721631332742911 0.0 -0.0 0.7854601334426244 0.6189122545016335
9 52.117230671659534 5.393760885433338 52.69969014625232 4.763890906341759 1.5879636354472546 1.5879636354472546 0.0 -0.0 0.7176002965020949 0.6964551776389529
10 47.267390588778504 14.92286206295781 12.943200347421058 4.811768805921251 1.603922935307088 1.603922935307088 0.0 0.0 0.38534345666417513 0.9227732226317065
11 19.88278717264791 35.02499556998074 60.473741564602044 4.86012788639112 1.6200426287970517 1.6200426287970517 0.0 0.0 0.49983922045674145 0.866118209999765
12 13.173564549898584 17.222947303871877 24.502519992870823 4.908972983699701 1.6363243278999349 1.6363243278999349 0.0 0.0 0.2746680171135514 0.9615391205639581
13 8.663140501096906 47.39970891776271 15.597074736709978 4.958308982397631 1.6527696607992008 1.6527696607992008 0.0 -0.0 0.7886508549344257 0.614841303924191
14 7.760462007501054 28.557435789475576 24.55138344502172 5.008140816125609 1.669380272041856 1.669380272041856 0.0 -0.0 0.7750680292508737 0.6318777967559605
15 26.966927060245755 45.4217130722817 19.96325893071677 5.058473468108685 1.6861578227029337 1.6861578227029337 0.0 0.0 0.6340811782098568 0.7732664866913604
16 18.592677595768603 31.405826044602986 51.00075434983424 5.109311971654139 1.7031039905513516 1.7031039905513516 0.0 -0.0 0.7629176367612683 0.6464956918020424
17 19.301405741463064 23.689570210700314 34.13861507869385 5.1606614106543605 1.7202204702180954 1.7202204702180954 0.0 0.0 0.6579222258448839 0.7530858813836
18 37.19875695606071 28.23757082001833 16.012948467997127 5.212526920096201 1.737508973365397 1.737508973365397 0.0 0.0 0.506211649243881 0.8624092799650234
19 14.64372621594675 11.952048364093331 36.9691573288358 5.264913686573912 1.754971228857964 1.754971228857964 0.0 0.0 0.6434542777811493 0.7654845474633303
20 30.569327197055305 52.20621429256958 35.180573376733975 5.317826948807683 1.7726089829359217 1.7726089829359217 0.0 -0.0 0.7861857262579329 0.6179902942832407
21 46.75909432597536 15.642038615522349 44.99276900063172 5.371271998167868 1.7904239993892794 1.7904239993892794 0.0 0.0 0.6069811502172251 0.7947162281474907
22 18.903585108423155 11.710370306224688 30.09526679568971 5.425254179203954 1.8084180597346389 1.8084180597346389 0.0 -0.0 0.8910647246123514 0.45387625687131333
23 41.1543636133088 60.43602908074037 46.294520365701835 5.479778890179039 1.8265929633930515 1.8265929633930515 0.0 -0.0 0.7582829367961579 0.651925599868416
24 26.369786545796003 5.635074094638233 47.27985435503938 5.534851583609625 1.8449505278698841 1.8449505278698841 0.0 0.0 0.5255054740936084 0.8507902189715464
25 14.802562542030088 0.9226172735048582 52.104296111144535 5.590477766811109 1.8634925889370066 1.8634925889370066 0.0 0.0 0.6637035342538496 0.7479957343587923
26 2.1375439145326975 44.148012700495656 29.13300634163086 5.646663002447818 1.8822210008159423 1.8822210008159423 0.0 0.0 0.5361151400853296 0.8441448670526212
27 5.437119312576146 30.113641153007045 31.886371404401338 5.703412909090412 1.9011376363634551 1.9011376363634551 0.0 -0.0 0.7297620279401082 0.6837012378054764
28 17.327251476075663 33.84361459722564 29.838137701496606 5.760733161776782 1.9202443872588952 1.9202443872588952 0.0 -0.0 0.9828164757017253 0.18458541407500267
29 45.038767310717255 31.441501176659212 30.32325101647077 5.818629492579963 1.9395431641933367 1.9395431641933367 0.0 -0.0 0.8740853421614372 0.4857723897243679
30 20.029592420657305 60.2284226955874 26.50909340254478 5.877107691181252 1.959035897060433 1.959035897060433 0.0 -0.0 0.8433777540022546 0.5373210995802349
31 60.437811907755204 40.9881139502808 31.752308881314406 5.936173605449194 1.9787245351497769 1.9787245351497769 0.0 0.0 0.6952778540174372 0.7187410560924617
32 55.250812733178755 36.62999122078111 32.686141468299205 5.995833142024652 1.998611047341565 1.998611047341565 0.0 0.0 0.6353234605105568 0.7722461398575527
33 30.216254002991132 25.842902945823372 25.234698421635397 6.056092266910811 2.018697422303569 2.018697422303569 0.0 0.0 0.6411270229476993 0.7674347792784871
34 20.557700248053692 19.99868536891632 21.21567774092369 6.116957006070298 2.038985668690146 2.038985668690146 0.0 -0.0 0.7453722743584635 0.6666484625480594
35 21.013100508352807 47.86864210510473 41.33617202698617 6.178433446027981 2.0594778153426962 2.0594778153426962 0.0 -0.0 0.7109313362059317 0.7032614273514853
36 40.467940185060876 7.089072471163638 59.22839059391845 6.240527734478955 2.080175911493032 2.080175911493032 0.0 -0.0 0.739632735620696 0.6730107104632479
37 26.310046785462998 51.00558048523109 23.786229685490202 6.303246080903985 2.10108202696801 2.10108202696801 0.0 0.0 0.5163603530767541 0.8563714064414165
38 17.00262755996417 16.869692981251795 17.343930625814632 6.366594757189669 2.122198252396519 2.122198252396519 0.0 0.0 0.5145463711011363 0.8574625542766586
39 8.867408419265894 39.47325084156954 23.489054628185293 6.43058009825656 2.1435266994188535 2.1435266994188535 0.0 0.0 0.5880831456971182 0.8088004783300898
40 59.227167628908504 21.508024277339228 14.821988108820628 6.495208502692247 2.165069500897395 2.165069500897395 0.0 -0.0 0.8608342640850161 0.5088854191045453
41 9.928840797422822 20.63042699132775 28.045941289374042 6.56048643339074 2.1868288111302374 2.1868288111302374 0.0 0.0 0.5813114541301716 0.8136811373609846
42 11.376593649861341 60.750508810528146 38.82317294249522 6.626420418199634 2.2088068060665806 2.2088068060665806 0.0 0.0 0.6858728758951139 0.7277213739552836
43 60.17941500118216 41.51735347929094 43.85269401742112 6.693017050572627 2.2310056835241827 2.2310056835241827 0.0 -0.0 0.8971229945165649 0.4417808650333688
44 41.72168455083265 20.03044668959644 26.360248145087844 6.760282990228002 2.253427663409318 2.253427663409318 0.0 -0.0 0.7662793896249596 0.6425075073771507
45 46.83023666912453 53.9628844141998 43.86114289578688 6.828224963816153 2.2760749879386784 2.2760749879386784 0.0 -0.0 0.8021859139948743 0.5970743332184094
46 15.280406265099625 47.37690300159917 15.24268958429903 6.896849765590614 2.298949921863577 2.298949921863577 0.0 0.0 0.6689296931602822 0.7433256793683982
47 46.98968786100824 23.469128914721683 15.964476440179482 6.966164258089286 2.322054752696429 2.322054752696429 0.0 -0.0 0.8121614142020023 0.5834328044268712
48 0.18912378376132036 47.50037874336874 13.58597960185193 7.036175372818886 2.3453917909396296 2.3453917909396296 0.0 0.0 0.43861391052531945 0.8986756019241242
49 26.05598201877822 2.9491458749017987 6.257037358088695 7.106890110949173 2.3689633703163926 2.3689633703163926 0.0 -0.0 0.7611420715427216 0.6485851886434459
50 25.71279263451676 19.948594558626844 59.83408211593583 7.178315544013092 2.3927718480043327 2.3927718480043327 0.0 0.0 0.5689873473401131 0.8223462765568174
51 45.47904062838871 23.989028118392337 39.49189234958448 7.25045881461333 2.4168196048710997 2.4168196048710997 0.0 -0.0 0.9816329176571261 0.1907794930592849
52 31.71442145721864 11.19169310075253 18.942812420607037 7.32332713713711 2.441109045712333 2.441109045712333 0.0 -0.0 0.8312938914163103 0.5558331279205367
53 7.316158467714443 60.17178554892192 6.5253898133875206 7.39692779847718 2.465642599492447 2.465642599492447 0.0 0.0 0.4937832216878833 0.8695850332081013
54 37.85031367944703 46.704973839444364 39.82868925821806 7.471268158761411 2.4904227195871345 2.4904227195871345 0.0 -0.0 0.7425013715714329 0.6698445440656666
55 23.912561042766733 41.79863414829696 14.26931232478692 7.471268158761411 2.4904227195871345 2.4904227195871345 0.0 -0.0 0.899222239431846 0.4374921303419936
56 41.01383883787069 6.905980615104975 18.244521612477683 7.546355652087627 2.515451884029216 2.515451884029216 0.0 0.0 0.591041689671776 0.8066410112744902
57 53.47206753145088 59.18562551853997 55.98707339778061 7.546355652087627 2.515451884029216 2.515451884029216 0.0 0.0 0.6906372933410847 0.7232013060320761
58 27.590037880275602 37.68451608473602 33.95806978102873 7.622197787267634 2.5407325957558746 2.5407325957558746 0.0 -0.0 0.9778925487455288 0.20910801779935065
59 38.015201762419245 57.58918436334848 21.62199844446331 7.622197787267634 2.5407325957558746 2.5407325957558746 0.0 -0.0 0.8334397726994561 0.5526103014626843
60 54.28161253063968 27.250862542416805 52.69069153832438 7.698802148578426 2.566267382859431 2.566267382859431 0.0 -0.0 0.8251393648538317 0.5649292243888745
61 6.336335931692834 6.607497087926044 41.261184133216666 7.698802148578426 2.566267382859431 2.566267382859431 0.0 -0.0 0.8342848482439009 0.5513336485202505
62 18.130249321242175 9.368396553888845 41.2854694367955 7.776176396519538 2.5920587988398034 2.5920587988398034 0.0 0.0 0.6993489688984815 0.7147803996337831
63 35.23193703843668 5.261400454504105 50.48355903555438 7.776176396519538 2.5920587988398034 2.5920587988398034 0.0 0.0 0.6638694557235675 0.747848477806363
64 43.36687161408252 34.28449664555578 47.29454077744927 7.854328268580537 2.6181094228601705 2.6181094228601705 0.0 0.0 0.5469534661185369 0.8371630103515794
65 15.928840781888102 28.96078195490859 6.276825344125425 7.854328268580537 2.6181094228601705 2.6181094228601705 0.0 0.0 0.534266604389083 0.8453160328744268
66 23.02032649600448 52.18075248990076 30.724508174214616 7.933265580013474 2.6444218600045364 2.6444218600045364 0.0 0.0 0.49259387534365895 0.8702593142126752
67 52.34919403164893 10.934647832770347 10.138187944419993 7.933265580013474 2.6444218600045364 2.6444218600045364 0.0 -0.0 0.7991221049958454 0.6011687461162707
68 37.517794693646614 22.38609080926311 23.748863833729978 8.012996224615845 2.6709987415386256 2.6709987415386256 0.0 -0.0 0.8113628171424923 0.5845428803420658
69 34.74343680420171 13.69316560071496 56.85548831486953 8.012996224615845 2.6709987415386256 2.6709987415386256 0.0 0.0 0.69974083585519 0.7143967823532522
70 13.236964028934652 60.511663909279854 17.402081806640176 8.09352817551803 2.697842725172682 2.697842725172682 0.0 -0.0 0.9226100212719841 0.3857340387475665
71 13.33323523934888 3.888491599267476 24.109857761088755 8.09352817551803 2.697842725172682 2.697842725172682 0.0 -0.0 0.8908476943010929 0.4543020862360491
72 7.443646523342846 41.81325862075628 7.615162513050013 8.174869485982327 2.724956495327477 2.724956495327477 0.0 -0.0 0.9180976465577227 0.39635427509384946
73 39.85063720495463 33.78883415847941 27.31009923367861 8.174869485982327 2.724956495327477 2.724956495327477 0.0 0.0 0.6852526383261238 0.7283054453092375
74 40.95055348003498 15.98454877620163 13.889783661076388 8.257028290207801 2.752342763402604 2.752342763402604 0.0 0.0 0.6622208999947843 0.7493086677799063
75 49.56184209421322 37.32219686514083 47.412716651374154 8.257028290207801 2.752342763402604 2.752342763402604 0.0 0.0 0.6669694181073614 0.7450850926636016
76 1.2099871395091277 14.191819035563176 30.166250924518614 8.340012804142988 2.7800042680477213 2.7800042680477213 0.0 0.0 0.4849872773235938 0.8745212066235144
77 13.558990733159172 44.15862931956504 20.46579660837142 8.340012804142988 2.7800042680477213 2.7800042680477213 0.0 -0.0 0.724549744492829 0.6892225096116464
78 2.097283067200976 11.395275657075317 13.336392181509773 8.423831326308798 2.807943775436257 2.807943775436257 0.0 0.0 0.646327957303847 0.7630597431442944
79 2.178064973253261 24.0140255722106 27.71536901554125 8.423831326308798 2.807943775436257 2.807943775436257 0.0 0.0 0.4210348644808628 0.9070444547493698
80 2.9180181462579835 8.160209647833572 23.019987953460884 8.508492238627129 2.836164079542353 2.836164079542353 0.0 0.0 0.5786941501693628 0.8155446527074768
81 54.910497750437976 51.21625846123264 27.978853568994897 8.508492238627129 2.836164079542353 2.836164079542353 0.0 0.0 0.683142879342022 0.730284743373632
82 10.891548149022539 4.527117397226478 5.55395290863611 8.59400400725962 2.8646680024198345 2.8646680024198345 0.0 0.0 0.3480344086077516 0.937481760049257
83 14.503217079156743 43.81557643552985 2.7108266931546723 8.59400400725962 2.8646680024198345 2.8646680024198345 0.0 -0.0 0.8280938516825816 0.560589486884571
84 34.37482605687861 24.425284026787665 5.610565635464553 8.680375183454476 2.893458394484861 2.893458394484861 0.0 -0.0 0.8521868438699086 0.5232375972109076
85 20.41194437121198 44.430324062756185 26.599856411296003 8.680375183454476 2.893458394484861 2.893458394484861 0.0 0.0 0.2683204071818837 0.9633297250109892
86 8.03562493537005 0.09746183935487215 57.31358802870652 8.767614404401458 2.922538134800478 2.922538134800478 0.0 0.0 0.5717525694490604 0.8204261083902665
87 8.217077989673669 58.12790790678017 45.58654571943739 8.767614404401458 2.922538134800478 2.922538134800478 0.0 -0.0 0.7407334016199733 0.6717990977401677
88 34.45969749527132 46.31949290571235 55.67846623920564 8.855730394095353 2.951910131365083 2.951910131365083 0.0 0.0 0.6524446383875427 0.7578363898885753
89 36.968986471832636 25.20954649156496 47.44572718306327 8.855730394095353 2.951910131365083 2.951910131365083 0.0 0.0 0.3815125934194192 0.9243636411404275
90 19.555083975701383 19.546307246128794 51.1224674633811 8.94473196420843 2.981577321402779 2.981577321402779 0.0 -0.0 0.7664413141092511 0.642314340511314
91 28.148629945003 59.00762541092343 27.172830059430538 8.94473196420843 2.981577321402779 2.981577321402779 0.0 -0.0 0.7164030651197486 0.6976866404676452
92 51.27442467244925 16.711999471446248 34.269948954255774 9.034628014971716 3.011542671657215 3.011542671657215 0.0 0.0 0.3159382626609752 0.9487797500931208
93 16.098673736419574 32.749706529796626 36.528016530917434 9.034628014971716 3.011542671657215 3.011542671657215 0.0 -0.0 0.807675111463051 0.5896277760783901
94 51.85578179470041 15.787303472879865 47.00481567566025 9.125427536065416 3.0418091786884793 3.0418091786884793 0.0 0.0 0.5856043209472178 0.8105970511221638
95 39.99908071664081 59.959483841088506 55.130870591545126 9.125427536065416 3.0418091786884793 3.0418091786884793 0.0 -0.0 0.8283891439806925 0.5601530381377355
96 44.487368114585074 9.001167136974853 40.77117859882692 9.217139607517385 3.0723798691724986 3.0723798691724986 0.0 0.0 0.6380161188650698 0.7700230074928626
97 29.056114776910498 55.07784527659764 19.648760488627467 9.217139607517385 3.0723798691724986 3.0723798691724986 0.0 0.0 0.5652655734899162 0.8249089837231233
98 18.914083447945103 21.907397425931265 40.17555370708402 9.309773400611038 3.1032578002036395 3.1032578002036395 0.0 -0.0 0.9884337224668884 0.15165347437579585
99 47.575508635077696 42.28260560661311 7.166759040644706 9.309773400611038 3.1032578002036395 3.1032578002036395 0.0 0.0 0.644584962479319 0.7645326848117973
100 28.26799289738105 34.77150336348116 55.96204622151552 9.40333817880294 3.1344460596010197 3.1344460596010197 0.0 -0.0 0.7665764345255346 0.6421530736748979
101 14.770670066343275 23.88730402217186 60.86268801648973 9.40333817880294 3.1344460596010197 3.1344460596010197 0.0 -0.0 0.7486465484609144 0.6629693397718779
102 39.44507889178573 41.390518946416464 10.128505085831634 9.497843298648794 3.165947766216311 3.165947766216311 0.0 -0.0 0.764238184631255 0.644934102952793
103 24.723105114311277 45.46545456563976 59.945206171597626 9.497843298648794 3.165947766216311 3.165947766216311 0.0 -0.0 0.7262700822056904 0.6874094614514261
104 50.218712070212305 59.84696585336822 49.68540391131115 9.593298210739608 3.197766070246471 3.197766070246471 0.0 0.0 0.6864264585310771 0.7271992278794606
105 24.087472933770083 50.372669548068814 10.919174729006045 9.593298210739608 3.197766070246471 3.197766070246471 0.0 -0.0 0.8498704758576332 0.5269916263713497
106 12.716869512003422 14.554310284727627 47.78428828928818 9.689712460645623 3.2299041535485737 3.2299041535485737 0.0 -0.0 0.793590538753224 0.6084521811953406
107 38.7072007992239 47.40852642913361 19.32848746988993 9.689712460645623 3.2299041535485737 3.2299041535485737 0.0 -0.0 0.8299364941277125 0.5578578812878792
108 54.81375383836806 42.10008685999526 58.50893597762444 9.787095689872702 3.2623652299575374 3.2623652299575374 0.0 -0.0 0.7596155095013813 0.650372414640225
109 60.07747254732538 39.86614049081193 5.194105682017212 9.787095689872702 3.2623652299575374 3.2623652299575374 0.0 -0.0 0.746179639226726 0.6657446552571586
110 45.30958087427934 15.778265498376513 52.66363992170186 9.88545763682463 3.2951525456081807 3.2951525456081807 0.0 -0.0 0.7434755474029917 0.6687631198068729
111 31.564184885884433 40.5426943633648 26.998175154572234 9.88545763682463 3.2951525456081807 3.2951525456081807 0.0 -0.0 0.7635489887521677 0.6457499065238353
112 51.97539709457066 0.02350107211067312 18.97894437686559 9.984808137778154 3.328269379259449 3.328269379259449 0.0 -0.0 0.925703395166632 0.3782502137170186
113 18.868734111305205 9.852863168074409 12.092144612955076 9.984808137778154 3.328269379259449 3.328269379259449 0.0 -0.0 0.7476030998596368 0.6641457709571461
114 7.297116701232385 4.6960810783978335 34.07909851140759 10.08515712786634 3.361719042622076 3.361719042622076 0.0 -0.0 0.7095009508808979 0.7047044775642494
115 28.736112252932113 13.674448729113486 53.13196033115638 10.08515712786634 3.361719042622076 3.361719042622076 0.0 0.0 0.692332939305712 0.7215782016887105
116 13.298465638754863 32.27080840005143 54.901180707025 10.186514642071412 3.395504880690483 3.395504880690483 0.0 0.0 0.4838188577050026 0.8751681626573412
117 51.21218286714032 37.904960445394025 25.571553217601114 10.186514642071412 3.395504880690483 3.395504880690483 0.0 0.0 0.4072390243389004 0.9133216175343166
118 47.16194420831275 18.456163606413533 60.70876152777981 10.28889081622949 3.429630272076498 3.429630272076498 0.0 -0.0 0.9854258972554679 0.17010526452245991
119 38.419938885328705 28.936553685800064 59.76880509471982 10.28889081622949 3.429630272076498 3.429630272076498 0.0 0.0 0.693566054094668 0.720393037589587
120 27.739963389695795 23.656638812346117 31.36527690120951 10.39229588804348 3.464098629347786 3.464098629347786 0.0 -0.0 0.8546373086497397 0.5192254526349123
121 0.4380078225930562 38.876604988068394 58.254378105464546 10.39229588804348 3.464098629347786 3.464098629347786 0.0 -0.0 0.738138054050796 0.6746496966293722
122 57.10560880547637 26.99690170486561 60.77517903642449 10.496740198106377 3.4989133993688037 3.4989133993688037 0.0 0.0 0.30497028615780525 0.9523618663936657
123 42.75589101338914 42.06993472863122 53.27988365512945 10.496740198106377 3.4989133993688037 3.4989133993688037 0.0 -0.0 0.8240326158671573 0.5665423620411186
124 7.755080625691868 46.7025234561303 0.4549165504642881 10.602234190936533 3.534078063645504 3.534078063645504 0.0 -0.0 0.7351480847541838 0.6779065521753388
125 0.5836498826007759 57.594689839584795 51.97765566194511 10.602234190936533 3.534078063645504 3.534078063645504 0.0 0.0 0.6354145425399089 0.7721711980699606
126 32.21957001562225 0.164175828997648 43.8456184377081 10.708788416020912 3.569596138673661 3.569596138673661 0.0 -0.0 0.9631928649301144 0.2688112812880415
127 57.53500623268344 20.74534395032011 42.34283504705417 10.708788416020912 3.569596138673661 3.569596138673661 0.0 0.0 0.6645731125154195 0.7472232451694524
128 8.227043861361635 48.47221558740607 52.295978946155294 10.816413528870758 3.605471176290251 3.605471176290251 0.0 -0.0 0.837305869343264 0.5467347447925007
129 33.14810118917384 0.9112288655739502 13.844562509840932 10.816413528870758 3.605471176290251 3.605471176290251 0.0 0.0 0.6718759690179156 0.7406636768846148
130 31.953679053379368 40.17286678388807 14.27580213850044 10.925120292087437 3.641706764029137 3.641706764029137 0.0 -0.0 0.8172568989423515 0.5762735124323614
131 3.853998327710897 30.77382194303819 39.76846990394019 10.925120292087437 3.641706764029137 3.641706764029137 0.0 0.0 0.5650588956672867 0.8250505708302167
132 25.95840013786407 60.52616920442083 53.99630377132591 11.034919576437556 3.678306525479209 3.678306525479209 0.0 0.0 0.5632303093681869 0.8262999568008076
133 11.412473052497715 46.34648131665459 34.567655999401225 11.034919576437556 3.678306525479209 3.678306525479209 0.0 0.0 0.7047758212396541 0.7094300823872436
134 0.395851987331581 32.918969066145685 48.860812258012814 11.145822361941013 3.7152741206469946 3.7152741206469946 0.0 -0.0 0.7457546235329385 0.6662207152882933
135 41.606916524918 49.536609842285564 0.7514960934870301 11.145822361941013 3.7152741206469946 3.7152741206469946 0.0 0.0 0.5807371118896761 0.8140911539097067
136 21.215092486131756 4.957973939424379 0.01178268135174676 11.257839738968935 3.752613246322997 3.752613246322997 0.0 -0.0 0.7765636880913803 0.6300387593933514
137 3.774064073752353 47.45316892267145 20.75939797554437 11.257839738968935 3.752613246322997 3.752613246322997 0.0 -0.0 0.9207785641385271 0.39008567754147583
138 53.37954294422221 17.203357209739483 26.001791806890466 11.370982909352378 3.79032763645076 3.79032763645076 0.0 0.0 0.5933031767685688 0.8049790931672228
139 8.232002076607783 11.99406518431741 60.32596986102919 11.370982909352378 3.79032763645076 3.79032763645076 0.0 0.0 0.36293328461656904 0.9318151270061183
140 60.7686999666133 58.68624879156575 39.56501558168468 11.485263187502795 3.8284210625009254 3.8284210625009254 0.0 0.0 0.5657838974393875 0.8245535649054563
141 18.590921744346172 46.08234853652588 53.86406613458969 11.485263187502795 3.8284210625009254 3.8284210625009254 0.0 0.0 0.5898626798291705 0.8075035720941112
142 7.31086566692312 17.20159164736426 8.791952590470236 11.600692001542614 3.8668973338475996 3.8668973338475996 0.0 0.0 0.494526605223718 0.8691624915548904
143 31.20061495329832 59.65317179529144 0.2981667343329459 11.600692001542614 3.8668973338475996 3.8668973338475996 0.0 0.0 0.6621201748514545 0.7493976741721844
144 10.001600381055173 27.06211305065628 46.03135219033008 11.717280894450111 3.9057602981501027 3.9057602981501027 0.0 -0.0 0.8358120424685423 0.5490156916378287
145 9.442043147966263 26.284841514433626 15.964096280809596 11.717280894450111 3.9057602981501027 3.9057602981501027 0.0 -0.0 0.7380766977143534 0.6747168208152773
146 20.73428687311803 55.57429445597553 48.16705320256243 11.83504152521142 3.9450138417372 3.9450138417372 0.0 0.0 0.5600689403365469 0.8284460043179022
147 38.182686105220135 19.783161707158236 34.14424517085906 11.83504152521142 3.9450138417372 3.9450138417372 0.0 -0.0 0.8053653384335279 0.5927787712543771
148 60.551581459388586 18.06231764289121 53.61219496214135 11.953985669988041 3.984661889996043 3.984661889996043 0.0 -0.0 0.9475491048281723 0.31961022189430877
149 46.768028238649 59.85492367287824 25.81930060359945 11.953985669988041 3.984661889996043 3.984661889996043 0.0 -0.0 0.8855269061838191 0.46458809543994295
150 17.522721539651986 30.630182606663418 22.676432490131543 12.074125223293203 4.024708407764403 4.024708407764403 0.0 -0.0 0.8997163709941051 0.43647502994466686
151 32.20640077960943 32.116024397036725 40.00776601853473 12.074125223293203 4.024708407764403 4.024708407764403 0.0 0.0 0.6949034215940625 0.7191030765174521
152 55.672096926615666 2.1035662901901357 0.09742323441359535 12.195472199182538 4.06515739972749 4.06515739972749 0.0 0.0 0.6496096252583186 0.7602679361723385
153 32.98788977999625 40.99757367465018 5.463679937909707 12.195472199182538 4.06515739972749 4.06515739972749 0.0 0.0 0.6980264017745981 0.7160720232110785
154 38.13670963384571 15.030917350558209 6.4215494397710335 12.31803873245448 4.106012910818129 4.106012910818129 0.0 -0.0 0.9126309719920443 0.4087844284716046
155 22.93638750598133 32.428528080199555 8.929694562560623 12.31803873245448 4.106012910818129 4.106012910818129 0.0 0.0 0.34897032679986184 0.9371337743423815
156 32.63863468345865 44.749999049069224 48.50581470751925 12.441837079865039 4.147279026621591 4.147279026621591 0.0 0.0 0.6995675014656925 0.7145665195718649
157 24.51500639080356 30.681614298068677 47.44689894756981 12.441837079865039 4.147279026621591 4.147279026621591 0.0 0.0 0.63565327495599 0.7719746848425306
158 50.52325073214624 59.79133247137681 35.49391816551746 12.566879621351724 4.188959873783869 4.188959873783869 0.0 -0.0 0.7426985308561326 0.6696259345814963
159 24.336624890221763 21.802980139865035 15.467799694919607 12.566879621351724 4.188959873783869 4.188959873783869 0.0 0.0 0.4891044501540252 0.8722252213961303
160 47.63414417474781 60.88084406588651 2.162696363032903 12.69317886127288 4.231059620424322 4.231059620424322 0.0 0.0 0.6466947184788655 0.7627489371290798
161 29.70926638330665 9.07019596670954 36.34227519888502 12.69317886127288 4.231059620424322 4.231059620424322 0.0 0.0 0.6377575578887067 0.7702371695496348
162 59.90279160523038 2.0197621483653028 7.943967914555838 12.82074742965767 4.273582476552528 4.273582476552528 0.0 0.0 0.6701572236966805 0.7422191694689361
163 40.20453516622753 0.7430545270950075 32.792322611197314 12.82074742965767 4.273582476552528 4.273582476552528 0.0 -0.0 0.7797338016261434 0.6261111711203069
164 43.26132316397776 43.10164581981639 33.96886026090807 12.949598083469713 4.316532694489904 4.316532694489904 0.0 0.0 0.6966086930688543 0.7174512727293072
165 60.29555139444609 33.10676835877343 17.378218873088958 12.949598083469713 4.316532694489904 4.316532694489904 0.0 -0.0 0.8994069955971553 0.43711217813153935
7_T 19.452286701427226 -3.3827853439830875 37.587867010869985 4.66955954617429 1.5565198487247531 1.5565198487247531 0.0 -0.0 0.7603958793842515 0.6494598575858641
11_F 19.88278717264791 35.02499556998074 -0.4262584353979548 4.86012788639112 1.6200426287970517 1.6200426287970517 0.0 0.0 0.49983922045674145 0.866118209999765
23_T 41.1543636133088 -0.46397091925962997 46.294520365701835 5.479778890179039 1.8265929633930515 1.8265929633930515 0.0 -0.0 0.7582829367961579 0.651925599868416
25_B 14.802562542030088 61.822617273504854 52.104296111144535 5.590477766811109 1.8634925889370066 1.8634925889370066 0.0 0.0 0.6637035342538496 0.7479957343587923
26_R 63.0375439145327 44.148012700495656 29.13300634163086 5.646663002447818 1.8822210008159423 1.8822210008159423 0.0 0.0 0.5361151400853296 0.8441448670526212
30_T 20.029592420657305 -0.671577304412601 26.50909340254478 5.877107691181252 1.959035897060433 1.959035897060433 0.0 -0.0 0.8433777540022546 0.5373210995802349
31_L -0.4621880922447943 40.9881139502808 31.752308881314406 5.936173605449194 1.9787245351497769 1.9787245351497769 0.0 0.0 0.6952778540174372 0.7187410560924617
36_F 40.467940185060876 7.089072471163638 -1.6716094060815507 6.240527734478955 2.080175911493032 2.080175911493032 0.0 -0.0 0.739632735620696 0.6730107104632479
40_L -1.672832371091495 21.508024277339228 14.821988108820628 6.495208502692247 2.165069500897395 2.165069500897395 0.0 -0.0 0.8608342640850161 0.5088854191045453
42_T 11.376593649861341 -0.1494911894718527 38.82317294249522 6.626420418199634 2.2088068060665806 2.2088068060665806 0.0 0.0 0.6858728758951139 0.7277213739552836
43_L -0.7205849988178414 41.51735347929094 43.85269401742112 6.693017050572627 2.2310056835241827 2.2310056835241827 0.0 -0.0 0.8971229945165649 0.4417808650333688
48_R 61.089123783761316 47.50037874336874 13.58597960185193 7.036175372818886 2.3453917909396296 2.3453917909396296 0.0 0.0 0.43861391052531945 0.8986756019241242
49_B 26.05598201877822 63.849145874901794 6.257037358088695 7.106890110949173 2.3689633703163926 2.3689633703163926 0.0 -0.0 0.7611420715427216 0.6485851886434459
50_F 25.71279263451676 19.948594558626844 -1.06591788406417 7.178315544013092 2.3927718480043327 2.3927718480043327 0.0 0.0 0.5689873473401131 0.8223462765568174
53_T 7.316158467714443 -0.728214451078081 6.5253898133875206 7.39692779847718 2.465642599492447 2.465642599492447 0.0 0.0 0.4937832216878833 0.8695850332081013
56_B 41.01383883787069 67.80598061510497 18.244521612477683 7.546355652087627 2.515451884029216 2.515451884029216 0.0 0.0 0.591041689671776 0.8066410112744902
57_T 53.47206753145088 -1.7143744814600268 55.98707339778061 7.546355652087627 2.515451884029216 2.515451884029216 0.0 0.0 0.6906372933410847 0.7232013060320761
59_T 38.015201762419245 -3.310815636651519 21.62199844446331 7.622197787267634 2.5407325957558746 2.5407325957558746 0.0 -0.0 0.8334397726994561 0.5526103014626843
61_B 6.336335931692834 67.50749708792604 41.261184133216666 7.698802148578426 2.566267382859431 2.566267382859431 0.0 -0.0 0.8342848482439009 0.5513336485202505
63_B 35.23193703843668 66.1614004545041 50.48355903555438 7.776176396519538 2.5920587988398034 2.5920587988398034 0.0 0.0 0.6638694557235675 0.747848477806363
70_T 13.236964028934652 -0.38833609072014497 17.402081806640176 8.09352817551803 2.697842725172682 2.697842725172682 0.0 -0.0 0.9226100212719841 0.3857340387475665