ITEM: TIMESTEP
815
ITEM: NUMBER OF ATOMS
292
ITEM: BOX BOUNDS ff ff ff
0 60.9
60.9 0
60.9 0
ITEM: ATOMS id x y z AsphericalShapeX AsphericalShapeY AsphericalShapeZ OrientationX OrientationY OrientationZ OrientationW
1 45.69153414882394 49.0429898653617 23.08527886445844 5.759971851566866 1.9199906171889605 1.9199906171889605 0.0 -0.0 0.7863642711635499 0.6177630881150306
2 2.5385308122251433 15.87722598885416 22.697512900609404 5.817860531075185 1.939286843691684 1.939286843691684 0.0 -0.0 0.8896314041555925 0.4566792799549252
3 16.050037931771747 9.549436939200847 54.81718951629241 5.876331001484734 1.958777000494974 1.958777000494974 0.0 0.0 0.631512325711268 0.7753658378305981
4 17.50274355491198 44.12014453105287 42.782019019418414 5.935389109891564 1.9784630366305802 1.9784630366305802 0.0 0.0 0.5765741652112841 0.8170448164029381
5 33.89576877747853 32.567428747690364 20.44801863654496 5.995040762155635 1.9983469207185638 1.9983469207185638 0.0 -0.0 0.8873914294477543 0.4610167577677315
6 19.04145674832081 60.69915971528196 27.59873039790422 6.055291923491706 2.0184306411639077 2.0184306411639077 0.0 0.0 0.643710445538684 0.7652691437033046
7 20.03912434948105 49.1202513970438 37.99792765631142 6.116148619066165 2.0387162063553674 2.0387162063553674 0.0 -0.0 0.7603958793842515 0.6494598575858641
8 40.13069797160571 28.334684658920562 13.696939536851778 6.177616934599317 2.0592056448665006 2.0592056448665006 0.0 -0.0 0.7854601334426244 0.6189122545016335
9 48.03546622250599 5.9635921365558255 51.17017143728903 6.239703016974121 2.079901005658042 2.079901005658042 0.0 -0.0 0.7176002965020949 0.6964551776389529
10 49.16422334139633 5.362915293206035 15.409577008114471 6.30241307485032 2.1008043582834444 2.1008043582834444 0.0 0.0 0.38534345666417513 0.9227732226317065
11 14.518375361631126 31.08362978916169 60.30800970221703 6.3657533792859615 2.1219177930953363 2.1219177930953363 0.0 0.0 0.49983922045674145 0.866118209999765
12 8.820140956936399 9.235955395765837 26.03165589964823 6.429730264364278 2.1432434214548226 2.1432434214548226 0.0 0.0 0.2746680171135514 0.9615391205639581
13 5.082812041758065 49.7635567534241 11.015613936866806 6.494350127827343 2.1647833759424664 2.1647833759424664 0.0 -0.0 0.7886508549344257 0.614841303924191
14 12.138234888284366 36.524318323185476 20.330033821846126 6.559619431715018 2.1865398105716887 2.1865398105716887 0.0 -0.0 0.7750680292508737 0.6318777967559605
15 28.360981819967343 45.83644907197499 19.51393419969709 6.625544703012325 2.2085149010041754 2.2085149010041754 0.0 0.0 0.6340811782098568 0.7732664866913604
16 18.551971503063694 25.32907545467582 48.74646062425652 6.692132534301425 2.2307108447671182 2.2307108447671182 0.0 -0.0 0.7629176367612683 0.6464956918020424
17 19.693437766251773 8.470563646709795 31.594432915649644 6.759389584420491 2.2531298614734783 2.2531298614734783 0.0 0.0 0.6579222258448839 0.7530858813836
18 36.453037079892354 26.162009623655425 17.300338006178528 6.827322579130766 2.2757741930436213 2.2757741930436213 0.0 0.0 0.506211649243881 0.8624092799650234
19 13.442497729427792 3.866496964944629 33.97110124127215 6.895938311788574 2.298646103929556 2.298646103929556 0.0 0.0 0.6434542777811493 0.7654845474633303
20 27.336885937280204 42.636632296296824 36.30125721070425 6.965243644024137 2.3217478813414347 2.3217478813414347 0.0 -0.0 0.7861857262579329 0.6179902942832407
21 44.98158861300135 16.985411237923792 48.03173429980343 7.0352455064284785 2.345081835476191 2.345081835476191 0.0 0.0 0.6069811502172251 0.7947162281474907
22 12.975022931032717 2.7599746800504743 28.21152308132045 7.105950899246266 2.368650299748757 2.368650299748757 0.0 -0.0 0.8910647246123514 0.45387625687131333
23 45.49475904428826 3.105758377361918 47.64490369865347 7.177366893075536 2.3924556310252303 2.3924556310252303 0.0 -0.0 0.7582829367961579 0.651925599868416
24 22.243701267745347 13.30327117583608 43.26277590621252 7.249500629575307 2.4165002098584902 2.4165002098584902 0.0 0.0 0.5255054740936084 0.8507902189715464
25 11.712601773716578 4.137068803244954 53.87584652200781 7.322359322179573 2.440786440726513 2.440786440726513 0.0 0.0 0.6637035342538496 0.7479957343587923
26 3.4824020986216087 51.46724158742312 29.477782658750897 7.395950256817734 2.4653167522725323 2.4653167522725323 0.0 0.0 0.5361151400853296 0.8441448670526212
27 3.154761351411491 39.4023849164684 27.91341333808593 7.470280792644951 2.490093597548273 2.490093597548273 0.0 -0.0 0.7297620279401082 0.6837012378054764
28 8.778686621607882 25.862267393545373 28.01944550797526 7.5453583627767 2.5151194542588393 2.5151194542588393 0.0 -0.0 0.9828164757017253 0.18458541407500267
29 47.586444952415754 23.820815096938613 27.850071293230656 7.621190475032551 2.540396825010866 2.540396825010866 0.0 -0.0 0.8740853421614372 0.4857723897243679
30 19.334913246305117 57.815330672123544 22.51379452195892 7.697784712686888 2.565928237562311 2.565928237562311 0.0 -0.0 0.8433777540022546 0.5373210995802349
31 54.6949544871049 45.43087118157798 33.05308910062649 7.775148735227184 2.591716245075802 2.591716245075802 0.0 0.0 0.6952778540174372 0.7187410560924617
32 52.935006595923475 29.056738221674426 34.81514338639083 7.853290279120615 2.6177634263735525 2.6177634263735525 0.0 0.0 0.6353234605105568 0.7722461398575527
33 27.10860898664996 15.34738009082499 20.462945880044042 7.932217158586277 2.6440723861953623 2.6440723861953623 0.0 0.0 0.6411270229476993 0.7674347792784871
34 19.09549665649861 14.94171625083102 21.250842646065127 8.01193726637778 2.670645755459335 2.670645755459335 0.0 -0.0 0.7453722743584635 0.6666484625480594
35 21.660764994957745 36.0043208222199 36.152315115389264 8.092458574572728 2.6974861915243045 2.6974861915243045 0.0 -0.0 0.7109313362059317 0.7032614273514853
36 35.180499405805755 3.284209907131652 57.15156783087106 8.173789135368892 2.7245963784563725 2.7245963784563725 0.0 -0.0 0.739632735620696 0.6730107104632479
37 24.44345021049015 45.33072568441525 26.842565075642216 8.255937081890314 2.7519790272967937 2.7519790272967937 0.0 0.0 0.5163603530767541 0.8563714064414165
38 13.614414625826411 7.951250925467829 18.981068240201232 8.338910628999644 2.7796368763331585 2.7796368763331585 0.0 0.0 0.5145463711011363 0.8574625542766586
39 8.842917305519862 41.09001523196124 26.417535848089777 8.422718074120953 2.8075726913736507 2.8075726913736507 0.0 0.0 0.5880831456971182 0.8088004783300898
40 53.21186174327297 6.839492479176771 12.450590016936795 8.507367798068787 2.8357892660229513 2.8357892660229513 0.0 -0.0 0.8608342640850161 0.5088854191045453
41 5.2223316001151 16.9570692994967 31.057343713349088 8.592868265885786 2.8642894219619475 2.8642894219619475 0.0 0.0 0.5813114541301716 0.8136811373609846
42 12.822213855159669 49.58103158384287 37.64151216086173 8.679228027690055 2.893076009230064 2.893076009230064 0.0 0.0 0.6858728758951139 0.7277213739552836
43 59.27422066823515 41.76135921484603 40.71705286689559 8.766455719530157 2.9221519065099977 2.9221519065099977 0.0 -0.0 0.8971229945165649 0.4417808650333688
44 43.6782053709968 20.68974411650755 23.09369004739335 8.854560064247302 2.9515200214157282 2.9515200214157282 0.0 -0.0 0.7662793896249596 0.6425075073771507
45 49.74672809698431 51.9406898453428 38.67042547310389 8.943549872349859 2.9811832907832443 2.9811832907832443 0.0 -0.0 0.8021859139948743 0.5970743332184094
46 18.500564307724115 53.824782326538845 13.35627596987828 9.033434042892395 3.0111446809641715 3.0111446809641715 0.0 0.0 0.6689296931602822 0.7433256793683982
47 53.48805188942199 40.0589113497798 16.303718213094495 9.124221564367437 3.041407188122449 3.041407188122449 0.0 -0.0 0.8121614142020023 0.5834328044268712
48 1.3901031711741092 45.151161402004774 13.399963526165598 9.215921515602266 3.07197383853409 3.07197383853409 0.0 0.0 0.43861391052531945 0.8986756019241242
49 27.017215997951574 57.822472106645556 6.992701188976042 9.308543066668681 3.1028476888894994 3.1028476888894994 0.0 -0.0 0.7611420715427216 0.6485851886434459
50 25.261509402550416 17.935855365268672 60.01464853261957 9.402095479798778 3.1340318265995686 3.1340318265995686 0.0 0.0 0.5689873473401131 0.8223462765568174
51 44.43331289304044 20.021960874936376 40.00709040505949 9.496588110312057 3.1655293701040756 3.1655293701040756 0.0 -0.0 0.9816329176571261 0.1907794930592849
52 37.62423503985841 12.046418873513089 18.19328373707738 9.592030407550418 3.1973434691834357 3.1973434691834357 0.0 -0.0 0.8312938914163103 0.5558331279205367
53 3.8281666807688866 50.61102458655618 60.537087563790976 9.688431915822553 3.2294773052742247 3.2294773052742247 0.0 0.0 0.4937832216878833 0.8695850332081013
54 42.82452204071229 51.312793193967245 41.42171364348146 9.785802275360174 3.261934091786678 3.261934091786678 0.0 -0.0 0.7425013715714329 0.6698445440656666
55 21.151255307407162 36.7053007410553 16.55156170859722 9.785802275360174 3.261934091786678 3.261934091786678 0.0 -0.0 0.899222239431846 0.4374921303419936
56 43.49741413777326 3.994494371611067 15.264247969428398 9.884151223280101 3.2947170744267362 3.2947170744267362 0.0 0.0 0.591041689671776 0.8066410112744902
57 49.852756295327595 60.81220918988573 52.843798624475646 9.884151223280101 3.2947170744267362 3.2947170744267362 0.0 0.0 0.6906372933410847 0.7232013060320761
58 22.14163767083376 32.02141435978279 29.743029172732207 9.983488594559349 3.3278295315197313 3.3278295315197313 0.0 -0.0 0.9778925487455288 0.20910801779935065
59 27.799499447626065 0.5587065579223857 22.530159522692365 9.983488594559349 3.3278295315197313 3.3278295315197313 0.0 -0.0 0.8334397726994561 0.5526103014626843
60 49.86949429566656 16.79213894444501 52.870498218806546 10.083824323017692 3.3612747743391584 3.3612747743391584 0.0 -0.0 0.8251393648538317 0.5649292243888745
61 2.136982256086122 7.403495778002626 42.2284315270047 10.083824323017692 3.3612747743391584 3.3612747743391584 0.0 -0.0 0.8342848482439009 0.5513336485202505
62 16.78956610273786 8.170807241441407 38.330569515630245 10.18516844231119 3.395056147437044 3.395056147437044 0.0 0.0 0.6993489688984815 0.7147803996337831
63 31.63124347410916 7.108769077622726 47.71528338831577 10.18516844231119 3.395056147437044 3.395056147437044 0.0 0.0 0.6638694557235675 0.747848477806363
64 45.30102274063581 27.453364986612364 45.110963387756094 10.287531086936797 3.4291770289789776 3.4291770289789776 0.0 0.0 0.5469534661185369 0.8371630103515794
65 4.447452976748686 23.20435082385521 4.262955878627135 10.287531086936797 3.4291770289789776 3.4291770289789776 0.0 0.0 0.534266604389083 0.8453160328744268
66 22.040878002442447 53.308371912974856 32.84542518447996 10.390922493244096 3.4636408310813835 3.4636408310813835 0.0 0.0 0.49259387534365895 0.8702593142126752
67 50.71112016465435 13.822042454036778 5.693793677312222 10.390922493244096 3.4636408310813835 3.4636408310813835 0.0 -0.0 0.7991221049958454 0.6011687461162707
68 34.190853852850644 17.037981817831465 22.889296438254856 10.495353000459952 3.4984510001533278 3.4984510001533278 0.0 -0.0 0.8113628171424923 0.5845428803420658
69 32.29037474427416 5.934655552158503 52.918850713534404 10.495353000459952 3.4984510001533278 3.4984510001533278 0.0 0.0 0.69974083585519 0.7143967823532522
70 7.497019464415355 56.29036893329641 14.941360591788827 10.600833051721688 3.533611017240654 3.533611017240654 0.0 -0.0 0.9226100212719841 0.3857340387475665
71 12.417116517665551 0.01361733110108787 22.170280276749242 10.600833051721688 3.533611017240654 3.533611017240654 0.0 -0.0 0.8908476943010929 0.4543020862360491
72 10.581305206091644 41.462652790465725 10.167401090963674 10.707373195123056 3.569124398374358 3.569124398374358 0.0 -0.0 0.9180976465577227 0.39635427509384946
73 37.425174509201725 28.482988041245367 28.23727367304248 10.707373195123056 3.569124398374358 3.569124398374358 0.0 0.0 0.6852526383261238 0.7283054453092375
74 46.79836909006858 23.556865942684553 15.416162515111022 10.814984084766566 3.6049946949221923 3.6049946949221923 0.0 0.0 0.6622208999947843 0.7493086677799063
75 48.70433359889663 39.04679411609357 43.81195969226198 10.814984084766566 3.6049946949221923 3.6049946949221923 0.0 0.0 0.6669694181073614 0.7450850926636016
76 59.773431958889105 13.99814150348056 29.335745546287065 10.923676481830936 3.6412254939437325 3.6412254939437325 0.0 0.0 0.4849872773235938 0.8745212066235144
77 12.111928984044265 52.563805930518114 15.4366256112017 10.923676481830936 3.6412254939437325 3.6412254939437325 0.0 -0.0 0.724549744492829 0.6892225096116464
78 4.288810088334309 7.5689185746443055 15.375299312494374 11.033461255647 3.6778204185489334 3.6778204185489334 0.0 0.0 0.646327957303847 0.7630597431442944
79 57.26281871386159 29.100239946899123 28.429642376196412 11.033461255647 3.6778204185489334 3.6778204185489334 0.0 0.0 0.4210348644808628 0.9070444547493698
80 2.51605435622031 58.682906678400855 25.407532096780958 11.144349384782764 3.714783128260955 3.714783128260955 0.0 0.0 0.5786941501693628 0.8155446527074768
81 58.141982229304226 47.86045689588987 26.103934312970797 11.144349384782764 3.714783128260955 3.714783128260955 0.0 0.0 0.683142879342022 0.730284743373632
82 6.519573070083122 52.76869452361216 5.364133722502644 11.256351958144094 3.7521173193813544 3.7521173193813544 0.0 0.0 0.3480344086077516 0.937481760049257
83 9.863152068177929 34.727940273198435 3.9090266245601857 11.256351958144094 3.7521173193813544 3.7521173193813544 0.0 -0.0 0.8280938516825816 0.560589486884571
84 39.650276082665094 16.324061789615598 7.755918552344388 11.369480176081746 3.789826725360589 3.789826725360589 0.0 -0.0 0.8521868438699086 0.5232375972109076
85 15.17234799950997 46.864354262967844 22.401271505538894 11.369480176081746 3.789826725360589 3.789826725360589 0.0 0.0 0.2683204071818837 0.9633297250109892
86 5.117342371824221 55.77931433287712 53.53252216812651 11.483745351511372 3.827915117170421 3.827915117170421 0.0 0.0 0.5717525694490604 0.8204261083902665
87 4.028684092780223 60.37540242178049 42.28287183576731 11.483745351511372 3.827915117170421 3.827915117170421 0.0 -0.0 0.7407334016199733 0.6717990977401677
88 32.992990990352084 43.07360341033179 53.4898831803774 11.599158911046118 3.866386303682033 3.866386303682033 0.0 0.0 0.6524446383875427 0.7578363898885753
89 36.974957811900964 14.02418413208885 43.53649856426173 11.599158911046118 3.866386303682033 3.866386303682033 0.0 0.0 0.3815125934194192 0.9243636411404275
90 18.793676033389435 11.503441006830931 48.38246931999543 11.715732396138204 3.9052441320460374 3.9052441320460374 0.0 -0.0 0.7664413141092511 0.642314340511314
91 25.36981194420259 0.955219505817832 27.37882667183342 11.715732396138204 3.9052441320460374 3.9052441320460374 0.0 -0.0 0.7164030651197486 0.6976866404676452
92 54.556703304059056 10.777265864808921 35.56421813701187 11.833477464232761 3.9444924880775063 3.9444924880775063 0.0 0.0 0.3159382626609752 0.9487797500931208
93 14.469812795705202 15.744100748530816 29.292057718722035 11.833477464232761 3.9444924880775063 3.9444924880775063 0.0 -0.0 0.807675111463051 0.5896277760783901
94 50.14251182043589 5.608999612336224 43.40985343388285 11.952405889934912 3.984135296644921 3.984135296644921 0.0 0.0 0.5856043209472178 0.8105970511221638
95 39.84067256474642 60.768921039282255 51.76615915312364 11.952405889934912 3.984135296644921 3.984135296644921 0.0 -0.0 0.8283891439806925 0.5601530381377355
96 43.915871899935205 5.70772676494696 36.51146814711416 12.072529566186635 4.024176522062218 4.024176522062218 0.0 0.0 0.6380161188650698 0.7700230074928626
97 24.797412797206043 51.61991843114605 16.51039899458378 12.072529566186635 4.024176522062218 4.024176522062218 0.0 0.0 0.5652655734899162 0.8249089837231233
98 13.435291512095459 21.53664466180094 36.72722458197493 12.193860505455108 4.064620168484996 4.064620168484996 0.0 -0.0 0.9884337224668884 0.15165347437579585
99 51.548165225319515 35.1737327458586 7.980995029297137 12.193860505455108 4.064620168484996 4.064620168484996 0.0 0.0 0.644584962479319 0.7645326848117973
100 25.898086278664888 30.842537182674594 53.22250210648224 12.316410840936232 4.105470280312117 4.105470280312117 0.0 -0.0 0.7665764345255346 0.6421530736748979
101 17.243780256846385 12.754549302031807 60.74623734623465 12.316410840936232 4.105470280312117 4.105470280312117 0.0 -0.0 0.7486465484609144 0.6629693397718779
102 42.536629407771485 37.264331024004996 8.077008404950618 12.440192827764822 4.14673094258832 4.14673094258832 0.0 -0.0 0.764238184631255 0.644934102952793
103 23.810256569773184 38.57984125880851 60.323106411331686 12.440192827764822 4.14673094258832 4.14673094258832 0.0 -0.0 0.7262700822056904 0.6874094614514261
104 52.388187714082115 52.06633474642724 48.75249850787009 12.565218844243219 4.188406281414329 4.188406281414329 0.0 0.0 0.6864264585310771 0.7271992278794606
105 19.249734847435295 39.13468465439414 9.314388579650203 12.565218844243219 4.188406281414329 4.188406281414329 0.0 -0.0 0.8498704758576332 0.5269916263713497
106 12.455514844112125 15.765691495198148 44.357736474023355 12.691501393076631 4.2305004643589665 4.2305004643589665 0.0 -0.0 0.793590538753224 0.6084521811953406
107 40.29106560320576 42.71713215663394 15.56625517983748 12.691501393076631 4.2305004643589665 4.2305004643589665 0.0 -0.0 0.8299364941277125 0.5578578812878792
108 50.670781684033116 35.471827243721464 55.266475766987604 12.819053102626071 4.273017700875379 4.273017700875379 0.0 -0.0 0.7596155095013813 0.650372414640225
109 59.391402958827314 35.793790087285565 3.911887259261973 12.819053102626071 4.273017700875379 4.273017700875379 0.0 -0.0 0.746179639226726 0.6657446552571586
110 39.928888854074465 14.858261032436207 52.00498330206675 12.947886728168243 4.315962242722773 4.315962242722773 0.0 -0.0 0.7434755474029917 0.6687631198068729
111 28.64679100547687 33.72933659083655 24.7068570354656 12.947886728168243 4.315962242722773 4.315962242722773 0.0 -0.0 0.7635489887521677 0.6457499065238353
112 56.33276976781209 55.729626495667 15.80417515376245 13.078015153173306 4.359338384391164 4.359338384391164 0.0 -0.0 0.925703395166632 0.3782502137170186
113 19.526381042749893 60.26470031775739 4.17784278836222 13.078015153173306 4.359338384391164 4.359338384391164 0.0 -0.0 0.7476030998596368 0.6641457709571461
114 7.392986014570193 60.57576887262376 33.81467951650621 13.209451390592324 4.403150463530681 4.403150463530681 0.0 -0.0 0.7095009508808979 0.7047044775642494
115 24.41913062609454 3.248882489595992 53.51956876993064 13.209451390592324 4.403150463530681 4.403150463530681 0.0 0.0 0.692332939305712 0.7215782016887105
116 11.765805289606094 26.546367550895383 54.31592349491183 13.342208584157637 4.447402861385949 4.447402861385949 0.0 0.0 0.4838188577050026 0.8751681626573412
117 42.71065881526953 38.07789424777925 24.468666714789588 13.342208584157637 4.447402861385949 4.447402861385949 0.0 0.0 0.4072390243389004 0.9133216175343166
118 33.77439941173542 13.087463393036609 60.493232164770646 13.47630000970026 4.492100003233422 4.492100003233422 0.0 -0.0 0.9854258972554679 0.17010526452245991
119 32.489572892915874 24.134228761988318 57.12620294274847 13.47630000970026 4.492100003233422 4.492100003233422 0.0 0.0 0.693566054094668 0.720393037589587
120 25.5210774401928 21.506445235966265 26.90989664436164 13.611739076474414 4.537246358824707 4.537246358824707 0.0 -0.0 0.8546373086497397 0.5192254526349123
121 59.80387955978689 38.07624364921717 54.84817579762666 13.611739076474414 4.537246358824707 4.537246358824707 0.0 -0.0 0.738138054050796 0.6746496966293722
122 54.93333596396965 13.883381146645302 60.88556221190576 13.748539328498982 4.582846442832931 4.582846442832931 0.0 0.0 0.30497028615780525 0.9523618663936657
123 42.756968824980724 39.99551842183674 51.520914213673684 13.748539328498982 4.582846442832931 4.582846442832931 0.0 -0.0 0.8240326158671573 0.5665423620411186
124 3.3885553567975646 26.01219358348199 0.09679377914751086 13.88671444591367 4.62890481530455 4.62890481530455 0.0 -0.0 0.7351480847541838 0.6779065521753388
125 58.63488563394472 60.3365526056971 48.613124758439525 13.88671444591367 4.62890481530455 4.62890481530455 0.0 0.0 0.6354145425399089 0.7721711980699606
126 34.14502623119784 59.00903279912988 42.2122830917659 14.026278246345216 4.675426082115072 4.675426082115072 0.0 -0.0 0.9631928649301144 0.2688112812880415
127 60.79318975888261 24.057396531682496 36.39508895102868 14.026278246345216 4.675426082115072 4.675426082115072 0.0 0.0 0.6645731125154195 0.7472232451694524
128 4.785757846341729 42.59747169782897 46.37237394968585 14.167244686289783 4.722414895429926 4.722414895429926 0.0 -0.0 0.837305869343264 0.5467347447925007
129 32.961529676764826 51.279831582369845 10.70407549782632 14.167244686289783 4.722414895429926 4.722414895429926 0.0 0.0 0.6718759690179156 0.7406636768846148
130 26.907466347350134 28.744023469122208 15.5075025252324 14.309627862509293 4.769875954169843 4.769875954169843 0.0 -0.0 0.8172568989423515 0.5762735124323614
131 8.049975493773736 31.156529144289724 33.54501355314033 14.309627862509293 4.769875954169843 4.769875954169843 0.0 0.0 0.5650588956672867 0.8250505708302167
132 22.290462467418656 49.160710879658026 51.19587685103456 14.453442013439787 4.8178140044800095 4.8178140044800095 0.0 0.0 0.5632303093681869 0.8262999568008076
133 14.550935018907392 43.479902800482854 30.35536801307943 14.453442013439787 4.8178140044800095 4.8178140044800095 0.0 0.0 0.7047758212396541 0.7094300823872436
134 55.136590640530294 19.354142108199596 44.121884160112536 14.598701520616135 4.866233840205369 4.866233840205369 0.0 -0.0 0.7457546235329385 0.6662207152882933
135 39.87718448324612 34.30562925698449 0.04063822141122131 14.598701520616135 4.866233840205369 4.866233840205369 0.0 0.0 0.5807371118896761 0.8140911539097067
136 17.015992960573627 51.95318544836765 0.1579753336226403 14.745420910110074 4.915140303370139 4.915140303370139 0.0 -0.0 0.7765636880913803 0.6300387593933514
137 60.563227338593265 34.90312239551095 20.527251644130544 14.745420910110074 4.915140303370139 4.915140303370139 0.0 -0.0 0.9207785641385271 0.39008567754147583
138 54.8919985464463 10.336941359046586 22.46434739202624 14.893614853983113 4.964538284661005 4.964538284661005 0.0 0.0 0.5933031767685688 0.8049790931672228
139 4.1569514477559855 4.577430379817596 60.85703172133338 14.893614853983113 4.964538284661005 4.964538284661005 0.0 0.0 0.36293328461656904 0.9318151270061183
140 58.03547005623376 58.53563171815925 35.211497001099346 15.043298171753268 5.014432723917749 5.014432723917749 0.0 0.0 0.5657838974393875 0.8245535649054563
141 16.55941445036427 37.86059094049642 51.72634611780128 15.043298171753268 5.014432723917749 5.014432723917749 0.0 0.0 0.5898626798291705 0.8075035720941112
142 6.971919920885303 2.568396564417994 7.145920497453904 15.194485831876015 5.064828610625352 5.064828610625352 0.0 0.0 0.494526605223718 0.8691624915548904
143 27.830588776457418 59.38780949128883 60.69966327605626 15.194485831876015 5.064828610625352 5.064828610625352 0.0 0.0 0.6621201748514545 0.7493976741721844
144 8.60514015765582 29.80369068369397 43.625633543493144 15.347192953244353 5.115730984414907 5.115730984414907 0.0 -0.0 0.8358120424685423 0.5490156916378287
145 12.962952454903498 20.006024067469752 10.987806826229638 15.347192953244353 5.115730984414907 5.115730984414907 0.0 -0.0 0.7380766977143534 0.6747168208152773
146 14.675173624528512 60.41903073935799 43.50138641181309 15.501434806697347 5.167144935565899 5.167144935565899 0.0 0.0 0.5600689403365469 0.8284460043179022
147 37.084406231122536 7.821927334315803 29.223505438425875 15.501434806697347 5.167144935565899 5.167144935565899 0.0 -0.0 0.8053653384335279 0.5927787712543771
148 60.7690000209176 10.42473709649134 51.318777161009166 15.657226816549347 5.219075605516422 5.219075605516422 0.0 -0.0 0.9475491048281723 0.31961022189430877
149 36.464350276032235 58.95878209758835 22.495816872243026 15.657226816549347 5.219075605516422 5.219075605516422 0.0 -0.0 0.8855269061838191 0.46458809543994295
150 10.580506162664896 19.980044880024888 21.166262734224972 15.81458456213043 5.271528187376812 5.271528187376812 0.0 -0.0 0.8997163709941051 0.43647502994466686
151 31.71857045530758 19.408991137050865 35.19936877454552 15.81458456213043 5.271528187376812 5.271528187376812 0.0 0.0 0.6949034215940625 0.7191030765174521
152 53.47829315309103 56.93580420610787 60.68468145559858 15.973523779346658 5.324507926448864 5.324507926448864 0.0 0.0 0.6496096252583186 0.7602679361723385
153 30.4014858780777 28.69849476866089 5.575142673450442 15.973523779346658 5.324507926448864 5.324507926448864 0.0 0.0 0.6980264017745981 0.7160720232110785
154 35.15703493152749 1.6294833940151128 8.24733129020166 16.134060362251777 5.378020120750618 5.378020120750618 0.0 -0.0 0.9126309719920443 0.4087844284716046
155 18.25900647216287 18.540188563306977 5.901144927307988 16.134060362251777 5.378020120750618 5.378020120750618 0.0 0.0 0.34897032679986184 0.9371337743423815
156 34.396102237914945 37.272789624572255 44.26756891884702 16.296210364638743 5.432070121546159 5.432070121546159 0.0 0.0 0.6995675014656925 0.7145665195718649
157 24.61965537177829 28.448392355046725 43.9196345755337 16.296210364638743 5.432070121546159 5.432070121546159 0.0 0.0 0.63565327495599 0.7719746848425306
158 48.369984276438515 59.075510254762875 28.156276524133773 16.459990001642133 5.486663333880571 5.486663333880571 0.0 -0.0 0.7426985308561326 0.6696259345814963
159 20.680792486128485 7.905015652582462 13.45860685760946 16.459990001642133 5.486663333880571 5.486663333880571 0.0 0.0 0.4891044501540252 0.8722252213961303
160 42.77627215890408 55.602080913951994 60.779736678930234 16.625415651362264 5.541805217120801 5.541805217120801 0.0 0.0 0.6466947184788655 0.7627489371290798
161 26.26976720810187 5.297635180305864 36.72700306709889 16.625415651362264 5.541805217120801 5.541805217120801 0.0 0.0 0.6377575578887067 0.7702371695496348
162 52.67019203802243 59.8823608572621 5.959667322021011 16.792503856501842 5.597501285500563 5.597501285500563 0.0 0.0 0.6701572236966805 0.7422191694689361
163 35.896638628725206 50.03320492170742 32.469273454803265 16.792503856501842 5.597501285500563 5.597501285500563 0.0 -0.0 0.7797338016261434 0.6261111711203069
164 43.60099029715126 34.352402280912635 34.537006368017465 16.961271326021407 5.653757108673775 5.653757108673775 0.0 0.0 0.6966086930688543 0.7174512727293072
165 60.5616382677878 24.08861847648894 12.992847329274905 16.961271326021407 5.653757108673775 5.653757108673775 0.0 -0.0 0.8994069955971553 0.43711217813153935
2_R 63.43853081222514 15.87722598885416 22.697512900609404 5.817860531075185 1.939286843691684 1.939286843691684 0.0 -0.0 0.8896314041555925 0.4566792799549252
6_T 19.04145674832081 -0.2008402847180406 27.59873039790422 6.055291923491706 2.0184306411639077 2.0184306411639077 0.0 0.0 0.643710445538684 0.7652691437033046
9_B 48.03546622250599 66.86359213655582 51.17017143728903 6.239703016974121 2.079901005658042 2.079901005658042 0.0 -0.0 0.7176002965020949 0.6964551776389529
11_F 14.518375361631126 31.08362978916169 -0.5919902977829707 6.3657533792859615 2.1219177930953363 2.1219177930953363 0.0 0.0 0.49983922045674145 0.866118209999765
19_B 13.442497729427792 64.76649696494462 33.97110124127215 6.895938311788574 2.298646103929556 2.298646103929556 0.0 0.0 0.6434542777811493 0.7654845474633303
22_B 12.975022931032717 63.659974680050475 28.21152308132045 7.105950899246266 2.368650299748757 2.368650299748757 0.0 -0.0 0.8910647246123514 0.45387625687131333
23_B 45.49475904428826 64.00575837736191 47.64490369865347 7.177366893075536 2.3924556310252303 2.3924556310252303 0.0 -0.0 0.7582829367961579 0.651925599868416
25_B 11.712601773716578 65.03706880324495 53.87584652200781 7.322359322179573 2.440786440726513 2.440786440726513 0.0 0.0 0.6637035342538496 0.7479957343587923
26_R 64.38240209862161 51.46724158742312 29.477782658750897 7.395950256817734 2.4653167522725323 2.4653167522725323 0.0 0.0 0.5361151400853296 0.8441448670526212
30_T 19.334913246305117 -3.0846693278764548 22.51379452195892 7.697784712686888 2.565928237562311 2.565928237562311 0.0 -0.0 0.8433777540022546 0.5373210995802349
36_B 35.180499405805755 64.18420990713165 57.15156783087106 8.173789135368892 2.7245963784563725 2.7245963784563725 0.0 -0.0 0.739632735620696 0.6730107104632479
40_B 53.21186174327297 67.73949247917677 12.450590016936795 8.507367798068787 2.8357892660229513 2.8357892660229513 0.0 -0.0 0.8608342640850161 0.5088854191045453
43_L -1.6257793317648463 41.76135921484603 40.71705286689559 8.766455719530157 2.9221519065099977 2.9221519065099977 0.0 -0.0 0.8971229945165649 0.4417808650333688
46_T 18.500564307724115 -7.075217673461154 13.35627596987828 9.033434042892395 3.0111446809641715 3.0111446809641715 0.0 0.0 0.6689296931602822 0.7433256793683982
48_R 62.29010317117411 45.151161402004774 13.399963526165598 9.215921515602266 3.07197383853409 3.07197383853409 0.0 0.0 0.43861391052531945 0.8986756019241242
49_T 27.017215997951574 -3.0775278933544428 6.992701188976042 9.308543066668681 3.1028476888894994 3.1028476888894994 0.0 -0.0 0.7611420715427216 0.6485851886434459
50_F 25.261509402550416 17.935855365268672 -0.8853514673804312 9.402095479798778 3.1340318265995686 3.1340318265995686 0.0 0.0 0.5689873473401131 0.8223462765568174
53_BR 64.72816668076888 50.61102458655618 60.537087563790976 9.688431915822553 3.2294773052742247 3.2294773052742247 0.0 0.0 0.4937832216878833 0.8695850332081013
53_FL 3.8281666807688866 50.61102458655618 -0.36291243620902236 9.688431915822553 3.2294773052742247 3.2294773052742247 0.0 0.0 0.4937832216878833 0.8695850332081013
53_FR 64.72816668076888 50.61102458655618 -0.36291243620902236 9.688431915822553 3.2294773052742247 3.2294773052742247 0.0 0.0 0.4937832216878833 0.8695850332081013