ITEM: TIMESTEP
779
ITEM: NUMBER OF ATOMS
287
ITEM: BOX BOUNDS ff ff ff
0 60.9
60.9 0
60.9 0
ITEM: ATOMS id x y z AsphericalShapeX AsphericalShapeY AsphericalShapeZ OrientationX OrientationY OrientationZ OrientationW
1 44.61918492912808 48.89991645392804 21.841328704956346 5.505855446350679 1.8352851487835646 1.8352851487835646 0.0 -0.0 0.7863642711635499 0.6177630881150306
2 3.8545425199442143 16.892252503712243 22.539291510175364 5.56119021352775 1.8537300711758748 1.8537300711758748 0.0 -0.0 0.8896314041555925 0.4566792799549252
3 17.151425874710164 10.122104417578871 55.32988894464957 5.61708110436041 1.8723603681201941 1.8723603681201941 0.0 0.0 0.631512325711268 0.7753658378305981
4 17.45932604193591 47.139856825836794 43.27669975286447 5.6735337079845936 1.891177902661582 1.891177902661582 0.0 0.0 0.5765741652112841 0.8170448164029381
5 33.93423214389222 34.02111244613928 21.370194227236816 5.730553669707592 1.9101845565692135 1.9101845565692135 0.0 -0.0 0.8873914294477543 0.4610167577677315
6 20.15227852021987 4.022033696246909 27.632946005365728 5.788146691572952 1.9293822305243233 1.9293822305243233 0.0 0.0 0.643710445538684 0.7652691437033046
7 19.125106625760925 51.64281525991489 39.292773381907836 5.846318532930893 1.9487728443102759 1.9487728443102759 0.0 -0.0 0.7603958793842515 0.6494598575858641
8 40.1334489671263 30.455478072949177 14.063010100430194 5.905075011014055 1.9683583370047415 1.9683583370047415 0.0 -0.0 0.7854601334426244 0.6189122545016335
9 49.14683741860728 5.896995320866442 51.3680247115613 5.96442200151938 1.9881406671731283 1.9881406671731283 0.0 -0.0 0.7176002965020949 0.6964551776389529
10 48.95415234935777 5.52733338094063 14.271944904838378 6.024365439195157 2.0081218130650567 2.0081218130650567 0.0 0.0 0.38534345666417513 0.9227732226317065
11 17.5641871181245 34.69094142524069 60.711863098751685 6.08491131843511 2.0283037728117246 2.0283037728117246 0.0 0.0 0.49983922045674145 0.866118209999765
12 9.602024975686678 12.372333331194861 25.024998822453544 6.146065693877621 2.0486885646259316 2.0486885646259316 0.0 0.0 0.2746680171135514 0.9615391205639581
13 6.784892010891861 51.234541052545005 11.935842555349696 6.207834681011438 2.069278227003821 2.069278227003821 0.0 -0.0 0.7886508549344257 0.614841303924191
14 11.146822388784264 37.48940579443517 20.705098787268966 6.270224456786424 2.090074818928813 2.090074818928813 0.0 -0.0 0.7750680292508737 0.6318777967559605
15 28.418585557466926 46.81335232985099 19.908641265120785 6.333241260232372 2.111080420077519 2.111080420077519 0.0 0.0 0.6340811782098568 0.7732664866913604
16 18.24728360134233 28.7443318027809 49.458722110275346 6.396891393082242 2.1322971310273853 2.1322971310273853 0.0 -0.0 0.7629176367612683 0.6464956918020424
17 18.577128792722643 9.956312069546811 33.4683238257622 6.461181220401938 2.1537270734672886 2.1537270734672886 0.0 0.0 0.6579222258448839 0.7530858813836
18 36.276199893279085 27.57758489401545 17.591524083398802 6.526117171227946 2.175372390409337 2.175372390409337 0.0 0.0 0.506211649243881 0.8624092799650234
19 14.227582917668691 7.175793486316165 33.01801895338714 6.591705739209673 2.197235246403245 2.197235246403245 0.0 0.0 0.6434542777811493 0.7654845474633303
20 28.65450191417911 45.29098644981731 35.36492188993455 6.657953483258374 2.2193178277528416 2.2193178277528416 0.0 -0.0 0.7861857262579329 0.6179902942832407
21 45.48435392578934 17.33102255098366 47.383982439359386 6.724867028203701 2.241622342734588 2.241622342734588 0.0 0.0 0.6069811502172251 0.7947162281474907
22 12.861229967304514 5.582847127009229 28.273463112254113 6.79245306545599 2.26415102181866 2.26415102181866 0.0 -0.0 0.8910647246123514 0.45387625687131333
23 45.09187252048275 4.527401781954836 48.481352495061635 6.8607183536751535 2.2869061178917693 2.2869061178917693 0.0 -0.0 0.7582829367961579 0.651925599868416
24 22.6409048857641 16.58477153251536 43.865995122439976 6.929669719446993 2.309889906482375 2.309889906482375 0.0 0.0 0.5255054740936084 0.8507902189715464
25 12.66175071409233 6.534591440333953 55.42672078912181 6.9993140579657664 2.3331046859885722 2.3331046859885722 0.0 0.0 0.6637035342538496 0.7479957343587923
26 2.1415808610542917 55.52124779031453 29.873808328922667 7.069658333722828 2.356552777907574 2.356552777907574 0.0 0.0 0.5361151400853296 0.8441448670526212
27 3.1719420446697892 36.68302268587122 29.152370617676112 7.140709581204726 2.3802365270682033 2.3802365270682033 0.0 -0.0 0.7297620279401082 0.6837012378054764
28 11.140680279911246 29.68896280159911 28.64360420474979 7.212474905595368 2.4041583018650674 2.4041583018650674 0.0 -0.0 0.9828164757017253 0.18458541407500267
29 46.75071659533079 24.510527707173807 27.625181087386864 7.284961483486991 2.4283204944956793 2.4283204944956793 0.0 -0.0 0.8740853421614372 0.4857723897243679
30 20.137902893786322 59.137124251105064 23.621547617259854 7.358176563597754 2.4527255211992665 2.4527255211992665 0.0 -0.0 0.8433777540022546 0.5373210995802349
31 56.23416482709937 42.45236428286011 32.12328284160883 7.432127467496574 2.4773758224989266 2.4773758224989266 0.0 0.0 0.6952778540174372 0.7187410560924617
32 53.82394466228696 30.44492536637786 33.93847591391042 7.506821590335876 2.502273863445306 2.502273863445306 0.0 0.0 0.6353234605105568 0.7722461398575527
33 26.85672068384394 18.660349381101515 21.310897406828534 7.582266401589817 2.5274221338632143 2.5274221338632143 0.0 0.0 0.6411270229476993 0.7674347792784871
34 19.697545586751353 16.88620646878006 23.07386111305613 7.65846944580229 2.5528231486008335 2.5528231486008335 0.0 -0.0 0.7453722743584635 0.6666484625480594
35 23.52664970714656 38.01303277228471 36.58759156284719 7.735438343341577 2.578479447780585 2.578479447780585 0.0 -0.0 0.7109313362059317 0.7032614273514853
36 37.49192271446711 2.4414562065121648 58.84829361023682 7.813180791161442 2.604393597053884 2.604393597053884 0.0 -0.0 0.739632735620696 0.6730107104632479
37 24.934380378660553 50.497199180499486 27.050870292143202 7.891704563571639 2.630568187857228 2.630568187857228 0.0 0.0 0.5163603530767541 0.8563714064414165
38 16.0799819902595 6.756180025162721 18.182176211943865 7.971017513014388 2.657005837671402 2.657005837671402 0.0 0.0 0.5145463711011363 0.8574625542766586
39 9.759531787220135 41.01375823084578 27.567150637513365 8.05112757085091 2.6837091902836367 2.6837091902836367 0.0 0.0 0.5880831456971182 0.8088004783300898
40 55.15085672310731 10.525033630582707 12.331220293461584 8.132042748154015 2.710680916051345 2.710680916051345 0.0 -0.0 0.8608342640850161 0.5088854191045453
41 7.852126718824419 20.250693842888886 31.15748207122683 8.213771136508472 2.737923712169504 2.737923712169504 0.0 0.0 0.5813114541301716 0.8136811373609846
42 13.631484418981142 53.929930054237815 39.5932765295577 8.296320908821354 2.7654403029405024 2.7654403029405024 0.0 0.0 0.6858728758951139 0.7277213739552836
43 60.011745921825856 41.282731058619525 39.8431071649395 8.379700320139115 2.7932334400463223 2.7932334400463223 0.0 -0.0 0.8971229945165649 0.4417808650333688
44 42.87879684726076 16.31804789343771 22.472536624484896 8.463917708471662 2.821305902823859 2.821305902823859 0.0 -0.0 0.7662793896249596 0.6425075073771507
45 50.50542359869763 56.723536467682194 39.24675796844352 8.548981495628563 2.849660498542807 2.849660498542807 0.0 -0.0 0.8021859139948743 0.5970743332184094
46 19.370127479468216 58.51833348206779 13.587845889746488 8.634900188058886 2.8783000626863404 2.8783000626863404 0.0 0.0 0.6689296931602822 0.7433256793683982
47 51.98993511538703 36.08920527663051 15.211075322191142 8.72168237770414 2.907227459234694 2.907227459234694 0.0 -0.0 0.8121614142020023 0.5834328044268712
48 0.44171455324380277 47.11211592626702 14.482069851309749 8.809336742855107 2.9364455809517036 2.9364455809517036 0.0 0.0 0.43861391052531945 0.8986756019241242
49 25.939226999885133 60.687300872435074 8.399877974524088 8.897872049021506 2.9659573496737903 2.9659573496737903 0.0 -0.0 0.7611420715427216 0.6485851886434459
50 25.58176661277984 21.653637814043506 60.12154769288598 8.987297149807677 2.9957657166025298 2.9957657166025298 0.0 0.0 0.5689873473401131 0.8223462765568174
51 46.61858995866211 23.572518228217916 40.02653744356927 9.077620987798316 3.025873662599479 3.025873662599479 0.0 -0.0 0.9816329176571261 0.1907794930592849
52 36.99141660535575 13.529405792897727 18.94162417046328 9.168852595452599 3.0562841984841627 3.0562841984841627 0.0 -0.0 0.8312938914163103 0.5558331279205367
53 6.025515571125308 53.69374881777957 0.2781033756395177 9.261001096006828 3.087000365335655 3.087000365335655 0.0 0.0 0.4937832216878833 0.8695850332081013
54 40.49673756530799 51.96351507802511 41.22779123747079 9.354075704388377 3.1180252347960895 3.1180252347960895 0.0 -0.0 0.7425013715714329 0.6698445440656666
55 22.17075943930301 39.374382195577596 16.74702518666469 9.354075704388377 3.1180252347960895 3.1180252347960895 0.0 -0.0 0.899222239431846 0.4374921303419936
56 42.32989712748099 3.3454394901465236 16.36317717370706 9.448085728135391 3.149361909378494 3.149361909378494 0.0 0.0 0.591041689671776 0.8066410112744902
57 50.680522944153964 0.031181707924302 53.565817670303325 9.448085728135391 3.149361909378494 3.149361909378494 0.0 0.0 0.6906372933410847 0.7232013060320761
58 26.02634426029421 38.1699217677011 30.527260909323523 9.543040568328765 3.181013522776214 3.181013522776214 0.0 -0.0 0.9778925487455288 0.20910801779935065
59 32.48565130742267 0.6095782637277254 23.16086513885922 9.543040568328765 3.181013522776214 3.181013522776214 0.0 -0.0 0.8334397726994561 0.5526103014626843
60 50.2653654728985 19.205446019103977 53.47354559444471 9.638949720531611 3.2129832401771368 3.2129832401771368 0.0 -0.0 0.8251393648538317 0.5649292243888745
61 3.6192271022817994 11.257789975822181 42.39740983256029 9.638949720531611 3.2129832401771368 3.2129832401771368 0.0 -0.0 0.8342848482439009 0.5513336485202505
62 17.818655185520726 8.782770229064619 38.66541318392439 9.735822775738656 3.245274258579528 3.245274258579528 0.0 0.0 0.6993489688984815 0.7147803996337831
63 32.648726182578315 10.363803041395885 47.08363120604463 9.735822775738656 3.245274258579528 3.245274258579528 0.0 0.0 0.6638694557235675 0.747848477806363
64 44.95694875565023 29.685203293877557 46.119823605694656 9.833669421336667 3.277889807112257 3.277889807112257 0.0 0.0 0.5469534661185369 0.8371630103515794
65 6.5392681917661974 26.53428919268558 5.322331013170854 9.833669421336667 3.277889807112257 3.277889807112257 0.0 0.0 0.534266604389083 0.8453160328744268
66 22.386768994400718 56.378585832477455 32.68345586959204 9.932499442071544 3.310833147357205 3.310833147357205 0.0 0.0 0.49259387534365895 0.8702593142126752
67 53.29432431238183 15.902458422440262 7.323158718226651 9.932499442071544 3.310833147357205 3.310833147357205 0.0 -0.0 0.7991221049958454 0.6011687461162707
68 35.25691917222596 19.128948645284904 23.912826637348715 10.03232272102789 3.344107573675974 3.344107573675974 0.0 -0.0 0.8113628171424923 0.5845428803420658
69 33.426885426152104 9.400778790759484 53.476673284022134 10.03232272102789 3.344107573675974 3.344107573675974 0.0 0.0 0.69974083585519 0.7143967823532522
70 6.2396001664608205 59.70898201886734 15.13683236731472 10.133149240616342 3.377716413538856 3.377716413538856 0.0 -0.0 0.9226100212719841 0.3857340387475665
71 13.985244962744876 0.16951816680924736 23.81148025012805 10.133149240616342 3.377716413538856 3.377716413538856 0.0 -0.0 0.8908476943010929 0.4543020862360491
72 11.22142793310366 43.54095422865546 10.199774096395588 10.23498908357349 3.4116630278578413 3.4116630278578413 0.0 -0.0 0.9180976465577227 0.39635427509384946
73 37.434871926286895 34.287277326218444 29.700358596443984 10.23498908357349 3.4116630278578413 3.4116630278578413 0.0 0.0 0.6852526383261238 0.7283054453092375
74 46.41557629199001 24.12307537730527 17.816879772740613 10.33785243396804 3.4459508113226835 3.4459508113226835 0.0 0.0 0.6622208999947843 0.7493086677799063
75 50.461114807087384 40.54357692241181 43.990293359819155 10.33785243396804 3.4459508113226835 3.4459508113226835 0.0 0.0 0.6669694181073614 0.7450850926636016
76 3.0219196865431233 12.399393219930932 29.060666628747946 10.44174957822075 3.4805831927403315 3.4805831927403315 0.0 0.0 0.4849872773235938 0.8745212066235144
77 14.087824753662268 51.755386328838675 17.296955958182632 10.44174957822075 3.4805831927403315 3.4805831927403315 0.0 -0.0 0.724549744492829 0.6892225096116464
78 5.030396210190082 12.4573022067322 16.21775777171092 10.546690906133138 3.515563635377657 3.515563635377657 0.0 0.0 0.646327957303847 0.7630597431442944
79 59.41618860559575 26.911847088825468 27.84820693405469 10.546690906133138 3.515563635377657 3.515563635377657 0.0 0.0 0.4210348644808628 0.9070444547493698
80 2.3305969595983127 60.7901008317375 24.67550255284782 10.652686911924718 3.5508956373082623 3.5508956373082623 0.0 0.0 0.5786941501693628 0.8155446527074768
81 58.00726701142691 52.09538616743504 25.610316436332475 10.652686911924718 3.5508956373082623 3.5508956373082623 0.0 0.0 0.683142879342022 0.730284743373632
82 10.13648062621481 55.26555643509993 5.929805852209077 10.759748195284814 3.586582731761589 3.586582731761589 0.0 0.0 0.3480344086077516 0.937481760049257
83 13.092498600742243 37.755326863088186 4.144119013647293 10.759748195284814 3.586582731761589 3.586582731761589 0.0 -0.0 0.8280938516825816 0.560589486884571
84 37.438650960340674 13.160546466969912 3.814554020567309 10.867885462431063 3.6226284874770336 3.6226284874770336 0.0 -0.0 0.8521868438699086 0.5232375972109076
85 16.19241859645031 47.048213455396976 24.88908019426027 10.867885462431063 3.6226284874770336 3.6226284874770336 0.0 0.0 0.2683204071818837 0.9633297250109892
86 5.139355505564971 56.158080161542344 54.54013465977693 10.977109527179989 3.6590365090599652 3.6590365090599652 0.0 0.0 0.5717525694490604 0.8204261083902665
87 7.171208909842608 60.75820581423788 42.35458655303639 10.977109527179989 3.6590365090599652 3.6590365090599652 0.0 -0.0 0.7407334016199733 0.6717990977401677
88 34.26440248401412 42.15191378969129 54.464363144607475 11.087431312029395 3.69581043734312 3.69581043734312 0.0 0.0 0.6524446383875427 0.7578363898885753
89 39.02306538104374 15.754411306908468 43.95537406448627 11.087431312029395 3.69581043734312 3.69581043734312 0.0 0.0 0.3815125934194192 0.9243636411404275
90 18.91828578824633 14.205001257675418 49.075003431469746 11.198861849249749 3.7329539497498856 3.7329539497498856 0.0 -0.0 0.7664413141092511 0.642314340511314
91 27.247519409647055 3.6337449554324754 27.736087199574865 11.198861849249749 3.7329539497498856 3.7329539497498856 0.0 -0.0 0.7164030651197486 0.6976866404676452
92 54.12644846703422 15.116966075686268 35.72678682521299 11.311412281987177 3.7704707606623225 3.7704707606623225 0.0 0.0 0.3159382626609752 0.9487797500931208
93 17.118338440914247 22.664603115184644 30.706089044680176 11.311412281987177 3.7704707606623225 3.7704707606623225 0.0 -0.0 0.807675111463051 0.5896277760783901
94 52.02457735369973 9.823038843119468 44.14198559622253 11.425093865378944 3.808364621792942 3.808364621792942 0.0 0.0 0.5856043209472178 0.8105970511221638
95 41.09015287740664 59.90307748857983 53.556492621476224 11.425093865378944 3.808364621792942 3.808364621792942 0.0 -0.0 0.8283891439806925 0.5601530381377355
96 45.204737938435265 9.378636958755346 37.48226204681854 11.539917967678381 3.846639322559474 3.846639322559474 0.0 0.0 0.6380161188650698 0.7700230074928626
97 25.714044655148626 60.595076630498376 17.89056629214347 11.539917967678381 3.846639322559474 3.846639322559474 0.0 0.0 0.5652655734899162 0.8249089837231233
98 15.991192636015663 22.394384832566534 38.3255536638916 11.655896071390929 3.8852986904636033 3.8852986904636033 0.0 -0.0 0.9884337224668884 0.15165347437579585
99 50.881786068775696 35.3855919156657 7.816011041335792 11.655896071390929 3.8852986904636033 3.8852986904636033 0.0 0.0 0.644584962479319 0.7645326848117973
100 26.316028637440603 33.75021290815738 54.51353767054273 11.773039774424323 3.924346591474814 3.924346591474814 0.0 -0.0 0.7665764345255346 0.6421530736748979
101 17.340276912265768 16.159244241760266 0.006247525398599407 11.773039774424323 3.924346591474814 3.924346591474814 0.0 -0.0 0.7486465484609144 0.6629693397718779
102 42.212540915773054 38.86658279723244 8.448522444543745 11.89136079124577 3.963786930415303 3.963786930415303 0.0 -0.0 0.764238184631255 0.644934102952793
103 24.694264281610238 41.66284894672844 0.09708535462963483 11.89136079124577 3.963786930415303 3.963786930415303 0.0 -0.0 0.7262700822056904 0.6874094614514261
104 52.59784776221788 58.34733645355063 47.13088918243401 12.010870954056017 4.0036236513519174 4.0036236513519174 0.0 0.0 0.6864264585310771 0.7271992278794606
105 19.919231343592788 41.90533231432655 10.091659066608162 12.010870954056017 4.0036236513519174 4.0036236513519174 0.0 -0.0 0.8498704758576332 0.5269916263713497
106 11.511716338133121 15.583198012826678 46.861648139810164 12.13158221397033 4.0438607379901885 4.0438607379901885 0.0 -0.0 0.793590538753224 0.6084521811953406
107 40.08498596330308 43.258255152161865 15.978532873414238 12.13158221397033 4.0438607379901885 4.0438607379901885 0.0 -0.0 0.8299364941277125 0.5578578812878792
108 51.44746193333674 38.211854821429554 55.82693628217896 12.253506642216117 4.08450221407204 4.08450221407204 0.0 -0.0 0.7596155095013813 0.650372414640225
109 59.6110671130533 34.253837852682004 3.8664137966328873 12.253506642216117 4.08450221407204 4.08450221407204 0.0 -0.0 0.746179639226726 0.6657446552571586
110 41.03666600648226 19.260444057934208 52.18076919637795 12.37665643133731 4.125552143779108 4.125552143779108 0.0 -0.0 0.7434755474029917 0.6687631198068729
111 28.864848407889607 37.78550983054943 25.2781080548656 12.37665643133731 4.125552143779108 4.125552143779108 0.0 -0.0 0.7635489887521677 0.6457499065238353
112 55.1129798124901 60.71804146088603 18.129529069640377 12.501043896415661 4.167014632138627 4.167014632138627 0.0 -0.0 0.925703395166632 0.3782502137170186
113 19.2739590582359 4.31104935431963 5.992330438170777 12.501043896415661 4.167014632138627 4.167014632138627 0.0 -0.0 0.7476030998596368 0.6641457709571461
114 9.35078199664152 0.18019552095592672 34.32884928853174 12.626681476301467 4.208893825433739 4.208893825433739 0.0 -0.0 0.7095009508808979 0.7047044775642494
115 26.359171300908827 10.2455362005134 52.40227117577352 12.626681476301467 4.208893825433739 4.208893825433739 0.0 0.0 0.692332939305712 0.7215782016887105
116 12.387840456648547 29.278556194808182 54.29992193439568 12.75358173485658 4.251193911618919 4.251193911618919 0.0 0.0 0.4838188577050026 0.8751681626573412
117 42.55281385785332 38.113715421260274 24.120211398729946 12.75358173485658 4.251193911618919 4.251193911618919 0.0 0.0 0.4072390243389004 0.9133216175343166
118 39.864205089870765 14.71670503917983 60.35539490088627 12.881757362213484 4.29391912073783 4.29391912073783 0.0 -0.0 0.9854258972554679 0.17010526452245991
119 32.590015601124946 29.768800431262083 60.667821296876255 12.881757362213484 4.29391912073783 4.29391912073783 0.0 0.0 0.693566054094668 0.720393037589587
120 25.22550855018684 20.958652536233597 28.740117739976263 13.011221176041701 4.337073725347147 4.337073725347147 0.0 -0.0 0.8546373086497397 0.5192254526349123
121 60.30155885686299 37.08314580897642 55.24166295805307 13.011221176041701 4.337073725347147 4.337073725347147 0.0 -0.0 0.738138054050796 0.6746496966293722
122 56.819335792471854 19.875178856133335 60.25504897570096 13.141986122829895 4.380662040943257 4.380662040943257 0.0 0.0 0.30497028615780525 0.9523618663936657
123 43.60938942229724 42.693456321972405 51.78734094753959 13.141986122829895 4.380662040943257 4.380662040943257 0.0 -0.0 0.8240326158671573 0.5665423620411186
124 5.968888217242959 33.39096250947955 0.009295362919466754 13.274065279182183 4.424688426394054 4.424688426394054 0.0 -0.0 0.7351480847541838 0.6779065521753388
125 60.55120973556439 0.10526837697361202 49.9878004654844 13.274065279182183 4.424688426394054 4.424688426394054 0.0 0.0 0.6354145425399089 0.7721711980699606
126 35.101163750283156 59.8627045001609 43.27383040108924 13.407471853124102 4.469157284374711 4.469157284374711 0.0 -0.0 0.9631928649301144 0.2688112812880415
127 0.9477531256159928 25.069756263160656 36.7670347339374 13.407471853124102 4.469157284374711 4.469157284374711 0.0 0.0 0.6645731125154195 0.7472232451694524
128 5.563458117861016 43.1038005862617 47.685010060604824 13.542219185424058 4.514073061808018 4.514073061808018 0.0 -0.0 0.837305869343264 0.5467347447925007
129 33.563319041443386 54.93938123340986 11.981728237851163 13.542219185424058 4.514073061808018 4.514073061808018 0.0 0.0 0.6718759690179156 0.7406636768846148
130 27.910265002044316 32.316997014059375 15.788241507966829 13.678320750928014 4.559440250309395 4.559440250309395 0.0 -0.0 0.8172568989423515 0.5762735124323614
131 7.925772090722181 34.89576080579988 35.30488918093038 13.678320750928014 4.559440250309395 4.559440250309395 0.0 0.0 0.5650588956672867 0.8250505708302167
132 24.552239728837076 58.65514598304181 52.09574821434027 13.815790159905692 4.6052633866353005 4.6052633866353005 0.0 0.0 0.5632303093681869 0.8262999568008076
133 15.971226946281819 43.47639085488441 32.55663107270563 13.815790159905692 4.6052633866353005 4.6052633866353005 0.0 0.0 0.7047758212396541 0.7094300823872436
134 56.982369819017634 25.20757002336222 44.97738484895394 13.954641159412486 4.651547053137485 4.651547053137485 0.0 -0.0 0.7457546235329385 0.6662207152882933
135 40.635913758687956 37.444103651529126 60.80013834384862 13.954641159412486 4.651547053137485 4.651547053137485 0.0 0.0 0.5807371118896761 0.8140911539097067
136 19.395951271917262 56.957214787724915 60.63006874104122 14.094887634664058 4.698295878221446 4.698295878221446 0.0 -0.0 0.7765636880913803 0.6300387593933514
137 0.06723096524570817 38.590875499868055 21.58131324800635 14.094887634664058 4.698295878221446 4.698295878221446 0.0 -0.0 0.9207785641385271 0.39008567754147583
138 55.54757432140469 15.281859830104027 23.610910687656844 14.236543610425048 4.745514536808317 4.745514536808317 0.0 0.0 0.5933031767685688 0.8049790931672228
139 5.819092536818027 4.8376586287777785 60.80119795525713 14.236543610425048 4.745514536808317 4.745514536808317 0.0 0.0 0.36293328461656904 0.9318151270061183
140 60.44044730866263 60.85575400878644 37.78027805602541 14.37962325241121 4.79320775080373 4.79320775080373 0.0 0.0 0.5657838974393875 0.8245535649054563
141 16.443348664762606 41.97349431372844 53.173777533804454 14.37962325241121 4.79320775080373 4.79320775080373 0.0 0.0 0.5898626798291705 0.8075035720941112
142 5.945147192755831 9.429652732455011 6.791997957966313 14.524140868705018 4.841380289568364 4.841380289568364 0.0 0.0 0.494526605223718 0.8691624915548904
143 30.261112248524864 60.874810726519364 0.19196924115708694 14.524140868705018 4.841380289568364 4.841380289568364 0.0 0.0 0.6621201748514545 0.7493976741721844
144 10.02244958067053 32.34251429528631 44.937298763761426 14.670110911189468 4.890036970396602 4.890036970396602 0.0 -0.0 0.8358120424685423 0.5490156916378287
145 12.093644359187744 22.658864886826358 12.458489891304723 14.670110911189468 4.890036970396602 4.890036970396602 0.0 -0.0 0.7380766977143534 0.6747168208152773
146 16.680085325796092 60.59263164889148 45.466300489851356 14.817547976990127 4.939182658996815 4.939182658996815 0.0 0.0 0.5600689403365469 0.8284460043179022
147 38.15811312279143 12.46211841345923 30.98131900070813 14.817547976990127 4.939182658996815 4.939182658996815 0.0 -0.0 0.8053653384335279 0.5927787712543771
148 0.04010520731057454 14.428436877915736 51.450659359069405 14.966466809936875 4.988822269978942 4.988822269978942 0.0 -0.0 0.9475491048281723 0.31961022189430877
149 41.779011162558824 60.68903208889473 24.485009807428685 14.966466809936875 4.988822269978942 4.988822269978942 0.0 -0.0 0.8855269061838191 0.46458809543994295
150 13.318297673503437 25.109576198452135 22.236534279112462 15.116882302036439 5.038960767345482 5.038960767345482 0.0 -0.0 0.8997163709941051 0.43647502994466686
151 32.751731383207 27.98475806131775 36.45480342164601 15.116882302036439 5.038960767345482 5.038960767345482 0.0 0.0 0.6949034215940625 0.7191030765174521
152 54.551225418946046 59.47703776558849 60.63011852482698 15.268809494963714 5.089603164987882 5.089603164987882 0.0 0.0 0.6496096252583186 0.7602679361723385
153 32.1187074177042 35.518876100253195 5.507718069998752 15.268809494963714 5.089603164987882 5.089603164987882 0.0 0.0 0.6980264017745981 0.7160720232110785
154 38.98394159868668 5.718603644915244 9.945662779969087 15.422263581564197 5.140754527188081 5.140754527188081 0.0 -0.0 0.9126309719920443 0.4087844284716046
155 21.741408285162915 22.831750289769793 5.957134283299261 15.422263581564197 5.140754527188081 5.140754527188081 0.0 0.0 0.34897032679986184 0.9371337743423815
156 34.55883488631125 38.66556596694018 45.65708571025862 15.577259907375254 5.192419969124996 5.192419969124996 0.0 0.0 0.6995675014656925 0.7145665195718649
157 24.780755108430366 30.96926779287247 45.2782344025322 15.577259907375254 5.192419969124996 5.192419969124996 0.0 0.0 0.63565327495599 0.7719746848425306
158 51.42760186072894 60.66576126051271 30.938855311009437 15.733813972157945 5.24460465738585 5.24460465738585 0.0 -0.0 0.7426985308561326 0.6696259345814963
159 21.463133774560763 12.398298502422367 14.688033334284349 15.733813972157945 5.24460465738585 5.24460465738585 0.0 0.0 0.4891044501540252 0.8722252213961303
160 44.841321613152296 55.12377324543562 1.3187445979851642 15.891941431449263 5.297313810483116 5.297313810483116 0.0 0.0 0.6466947184788655 0.7627489371290798
161 26.772626422454877 6.536404892270873 36.831063126352525 15.891941431449263 5.297313810483116 5.297313810483116 0.0 0.0 0.6377575578887067 0.7702371695496348
162 58.484862982049286 59.57569368907823 7.568451739463014 16.051658098126712 5.350552699375541 5.350552699375541 0.0 0.0 0.6701572236966805 0.7422191694689361
163 37.376335112469654 57.27205127501227 32.92066200579676 16.051658098126712 5.350552699375541 5.350552699375541 0.0 -0.0 0.7797338016261434 0.6261111711203069
164 44.57119788602692 38.40562338677412 35.29729563990269 16.21297994399099 5.4043266479969905 5.4043266479969905 0.0 0.0 0.6966086930688543 0.7174512727293072
165 0.06537836664322365 27.554459889312692 14.606629931666467 16.21297994399099 5.4043266479969905 5.4043266479969905 0.0 -0.0 0.8994069955971553 0.43711217813153935
6_B 20.15227852021987 64.92203369624691 27.632946005365728 5.788146691572952 1.9293822305243233 1.9293822305243233 0.0 0.0 0.643710445538684 0.7652691437033046
11_F 17.5641871181245 34.69094142524069 -0.1881369012483134 6.08491131843511 2.0283037728117246 2.0283037728117246 0.0 0.0 0.49983922045674145 0.866118209999765
22_B 12.861229967304514 66.48284712700922 28.273463112254113 6.79245306545599 2.26415102181866 2.26415102181866 0.0 -0.0 0.8910647246123514 0.45387625687131333
23_B 45.09187252048275 65.42740178195484 48.481352495061635 6.8607183536751535 2.2869061178917693 2.2869061178917693 0.0 -0.0 0.7582829367961579 0.651925599868416
25_B 12.66175071409233 67.43459144033395 55.42672078912181 6.9993140579657664 2.3331046859885722 2.3331046859885722 0.0 0.0 0.6637035342538496 0.7479957343587923
26_RB 63.04158086105429 55.52124779031453 29.873808328922667 7.069658333722828 2.356552777907574 2.356552777907574 0.0 0.0 0.5361151400853296 0.8441448670526212
26_LT 2.1415808610542917 -5.378752209685466 29.873808328922667 7.069658333722828 2.356552777907574 2.356552777907574 0.0 0.0 0.5361151400853296 0.8441448670526212
26_RT 63.04158086105429 -5.378752209685466 29.873808328922667 7.069658333722828 2.356552777907574 2.356552777907574 0.0 0.0 0.5361151400853296 0.8441448670526212
30_T 20.137902893786322 -1.7628757488949347 23.621547617259854 7.358176563597754 2.4527255211992665 2.4527255211992665 0.0 -0.0 0.8433777540022546 0.5373210995802349
36_BB 37.49192271446711 63.34145620651216 58.84829361023682 7.813180791161442 2.604393597053884 2.604393597053884 0.0 -0.0 0.739632735620696 0.6730107104632479
36_FT 37.49192271446711 2.4414562065121648 -2.0517063897631758 7.813180791161442 2.604393597053884 2.604393597053884 0.0 -0.0 0.739632735620696 0.6730107104632479
36_FB 37.49192271446711 63.34145620651216 -2.0517063897631758 7.813180791161442 2.604393597053884 2.604393597053884 0.0 -0.0 0.739632735620696 0.6730107104632479
38_B 16.0799819902595 67.65618002516273 18.182176211943865 7.971017513014388 2.657005837671402 2.657005837671402 0.0 0.0 0.5145463711011363 0.8574625542766586
42_T 13.631484418981142 -6.970069945762184 39.5932765295577 8.296320908821354 2.7654403029405024 2.7654403029405024 0.0 0.0 0.6858728758951139 0.7277213739552836
43_L -0.8882540781741426 41.282731058619525 39.8431071649395 8.379700320139115 2.7932334400463223 2.7932334400463223 0.0 -0.0 0.8971229945165649 0.4417808650333688
45_T 50.50542359869763 -4.176463532317804 39.24675796844352 8.548981495628563 2.849660498542807 2.849660498542807 0.0 -0.0 0.8021859139948743 0.5970743332184094
46_T 19.370127479468216 -2.38166651793221 13.587845889746488 8.634900188058886 2.8783000626863404 2.8783000626863404 0.0 0.0 0.6689296931602822 0.7433256793683982
48_R 61.341714553243804 47.11211592626702 14.482069851309749 8.809336742855107 2.9364455809517036 2.9364455809517036 0.0 0.0 0.43861391052531945 0.8986756019241242
49_T 25.939226999885133 -0.2126991275649246 8.399877974524088 8.897872049021506 2.9659573496737903 2.9659573496737903 0.0 -0.0 0.7611420715427216 0.6485851886434459
50_F 25.58176661277984 21.653637814043506 -0.7784523071140157 8.987297149807677 2.9957657166025298 2.9957657166025298 0.0 0.0 0.5689873473401131 0.8223462765568174