ITEM: TIMESTEP
617
ITEM: NUMBER OF ATOMS
255
ITEM: BOX BOUNDS ff ff ff
0 60.9
60.9 0
60.9 0
ITEM: ATOMS id x y z AsphericalShapeX AsphericalShapeY AsphericalShapeZ OrientationX OrientationY OrientationZ OrientationW
1 44.517247941797365 49.6016137817467 21.977617395448025 4.362331622877835 1.4541105409592834 1.4541105409592834 0.0 -0.0 0.7863642711635499 0.6177630881150306
2 5.388530430146647 20.436555670370417 21.82528934890106 4.406173784564292 1.468724594854734 1.468724594854734 0.0 -0.0 0.8896314041555925 0.4566792799549252
3 19.59686798908813 12.768431363144824 55.418005386782546 4.450456567300953 1.4834855224336845 1.4834855224336845 0.0 0.0 0.631512325711268 0.7753658378305981
4 16.488787055193228 39.061422449732326 44.724852745735895 4.495184399403226 1.4983947998010902 1.4983947998010902 0.0 0.0 0.5765741652112841 0.8170448164029381
5 40.86440410909767 33.075188320026925 21.04311840147754 4.540361753691399 1.5134539178971371 1.5134539178971371 0.0 -0.0 0.8873914294477543 0.4610167577677315
6 24.906673332450346 14.477378168358348 24.480079537611594 4.58599314793856 1.5286643826461928 1.5286643826461928 0.0 0.0 0.643710445538684 0.7652691437033046
7 19.816501623097807 57.58943518912283 37.39612658363983 4.632083145322169 1.5440277151073798 1.5440277151073798 0.0 -0.0 0.7603958793842515 0.6494598575858641
8 41.731505065358974 36.62458967666182 14.691326265193702 4.678636354880376 1.5595454516268246 1.5595454516268246 0.0 -0.0 0.7854601334426244 0.6189122545016335
9 52.138363737187106 5.341910369500734 52.65971912005375 4.725657431973045 1.5752191439910166 1.5752191439910166 0.0 -0.0 0.7176002965020949 0.6964551776389529
10 46.6848872404127 15.01568459241868 12.571484051340683 4.773151078746923 1.591050359582312 1.591050359582312 0.0 0.0 0.38534345666417513 0.9227732226317065
11 19.524522024863415 35.610425018463616 60.682663141542434 4.8211220446062795 1.6070406815354379 1.6070406815354379 0.0 0.0 0.49983922045674145 0.866118209999765
12 12.750594067738312 17.01740188133798 24.532219361933116 4.869575126687665 1.6231917088959222 1.6231917088959222 0.0 0.0 0.2746680171135514 0.9615391205639581
13 8.648899234909209 47.55824601541193 15.674808476592922 4.918515170339867 1.6395050567799456 1.6395050567799456 0.0 -0.0 0.7886508549344257 0.614841303924191
14 7.506533273990517 27.68804949548504 24.259539604386756 4.967947069607749 1.6559823565359022 1.6559823565359022 0.0 -0.0 0.7750680292508737 0.6318777967559605
15 26.719746636323453 45.04399275391819 20.015652788217412 5.017875767722581 1.6726252559075647 1.6726252559075647 0.0 0.0 0.6340811782098568 0.7732664866913604
16 18.675554867529193 31.879358182980276 51.17518649535356 5.0683062575959195 1.689435419198612 1.689435419198612 0.0 -0.0 0.7629176367612683 0.6464956918020424
17 19.232224582382297 24.461665537631546 34.369944076296306 5.11924358231845 1.706414527439459 1.706414527439459 0.0 0.0 0.6579222258448839 0.7530858813836
18 37.346474196668076 28.935937637252827 15.869175773868129 5.170692835665254 1.7235642785550809 1.7235642785550809 0.0 0.0 0.506211649243881 0.8624092799650234
19 15.059848497832103 11.403945592359015 37.55068069837227 5.222659162604621 1.7408863875348664 1.7408863875348664 0.0 0.0 0.6434542777811493 0.7654845474633303
20 30.533004792710585 53.01645865768445 35.23382570157629 5.275147759812438 1.7583825866041727 1.7583825866041727 0.0 -0.0 0.7861857262579329 0.6179902942832407
21 46.22973694913338 16.159359869550595 45.12540201431253 5.328163876192204 1.7760546253973912 1.7760546253973912 0.0 0.0 0.6069811502172251 0.7947162281474907
22 19.418217175812224 12.520583561847523 30.116009959930548 5.381712813399749 1.7939042711332376 1.7939042711332376 0.0 -0.0 0.8910647246123514 0.45387625687131333
23 40.97362903696636 59.68492770471799 45.94083344531471 5.435799926373431 1.8119333087911809 1.8119333087911809 0.0 -0.0 0.7582829367961579 0.651925599868416
24 26.48969438034186 6.196961599079036 47.67832648809171 5.490430623869582 1.8301435412898692 1.8301435412898692 0.0 0.0 0.5255054740936084 0.8507902189715464
25 14.69267426411471 1.6408261606751977 51.87668916549602 5.545610369003636 1.8485367896678493 1.8485367896678493 0.0 0.0 0.6637035342538496 0.7479957343587923
26 2.3235398169442085 44.9211877283226 29.31130654487628 5.601344679795748 1.8671148932652526 1.8671148932652526 0.0 0.0 0.5361151400853296 0.8441448670526212
27 4.841335590389182 30.45406797161604 31.726531003430335 5.657639129723714 1.88587970990789 1.88587970990789 0.0 -0.0 0.7297620279401082 0.6837012378054764
28 18.176965034555995 34.16162434060188 30.179249950170504 5.714499348279375 1.9048331160930936 1.9048331160930936 0.0 -0.0 0.9828164757017253 0.18458541407500267
29 45.04028117926257 31.705384309312524 30.374755864001237 5.771931021531969 1.9239770071773385 1.9239770071773385 0.0 -0.0 0.8740853421614372 0.4857723897243679
30 19.913818556500427 59.97517747329673 26.870689156300756 5.82993989269665 1.9433132975655656 1.9433132975655656 0.0 -0.0 0.8433777540022546 0.5373210995802349
31 60.04156729089546 41.63963767109622 32.019270962087376 5.888531762708832 1.9628439209029886 1.9628439209029886 0.0 0.0 0.6952778540174372 0.7187410560924617
32 54.86355016991779 36.752247497384815 32.00392651572811 5.947712490804549 1.9825708302681975 1.9825708302681975 0.0 0.0 0.6353234605105568 0.7722461398575527
33 29.757038262702714 26.116749175337908 25.134900445137024 6.007487995105747 2.0024959983685484 2.0024959983685484 0.0 0.0 0.6411270229476993 0.7674347792784871
34 20.325509999745375 20.79188128917644 21.290004382223696 6.0678642532125915 2.0226214177375765 2.0226214177375765 0.0 -0.0 0.7453722743584635 0.6666484625480594
35 20.991515712689193 48.28939216692089 41.63329183099102 6.128847302801433 2.0429491009338463 2.0429491009338463 0.0 -0.0 0.7109313362059317 0.7032614273514853
36 40.98177265522074 6.434838414011508 59.40973075239086 6.1904432422279205 2.063481080742686 2.063481080742686 0.0 -0.0 0.739632735620696 0.6730107104632479
37 26.043199285714334 51.6165554970759 23.461495157581247 6.2526582311375 2.0842194103791813 2.0842194103791813 0.0 0.0 0.5163603530767541 0.8563714064414165
38 16.262981408509855 17.726836348818797 17.23982646270987 6.315498491080602 2.105166163693497 2.105166163693497 0.0 0.0 0.5145463711011363 0.8574625542766586
39 9.044817957554832 39.10492124487018 23.348602901845222 6.378970306135721 2.126323435378574 2.126323435378574 0.0 0.0 0.5880831456971182 0.8088004783300898
40 59.43833070972365 21.359991799962987 14.824719887498912 6.443080023537413 2.1476933411791164 2.1476933411791164 0.0 -0.0 0.8608342640850161 0.5088854191045453
41 10.6330768740699 20.779684536329775 29.14452576642725 6.507834054310558 2.169278018103509 2.169278018103509 0.0 0.0 0.5813114541301716 0.8136811373609846
42 11.73283633897218 0.675514382961897 38.81453842447741 6.573238873912318 2.191079624637475 2.191079624637475 0.0 0.0 0.6858728758951139 0.7277213739552836
43 59.958306653950096 40.89490420182671 43.474272106461214 6.639301022879427 2.2131003409597834 2.2131003409597834 0.0 -0.0 0.8971229945165649 0.4417808650333688
44 41.62704417706929 19.165060772758267 26.72173531949905 6.70602710748139 2.2353423691604473 2.2353423691604473 0.0 -0.0 0.7662793896249596 0.6425075073771507
45 46.25755882820523 53.04848007841976 43.650866197577635 6.773423800382635 2.25780793346084 2.25780793346084 0.0 -0.0 0.8021859139948743 0.5970743332184094
46 14.748289366014605 47.009234030866814 14.741194234757685 6.841497841308186 2.2804992804361004 2.2804992804361004 0.0 0.0 0.6689296931602822 0.7433256793683982
47 47.77696759251821 23.9499500184546 16.015585947558428 6.910256037719388 2.303418679239796 2.303418679239796 0.0 -0.0 0.8121614142020023 0.5834328044268712
48 0.13563111439659492 46.48102254562892 13.810016322802062 6.979705265492892 2.326568421830965 2.326568421830965 0.0 0.0 0.43861391052531945 0.8986756019241242
49 25.74194642044063 3.0852404653450085 5.906223781876316 7.049852469609292 2.3499508232030997 2.3499508232030997 0.0 -0.0 0.7611420715427216 0.6485851886434459
50 25.909269120717678 19.18314850720135 59.88557151749293 7.120704664847657 2.373568221615855 2.373568221615855 0.0 0.0 0.5689873473401131 0.8223462765568174
51 46.32419972420884 23.840838084886293 39.66342445852716 7.192268936486417 2.3974229788287946 2.3974229788287946 0.0 -0.0 0.9816329176571261 0.1907794930592849
52 31.758171438531328 10.162616348324908 18.458196081887962 7.2645524410124125 2.421517480337434 2.421517480337434 0.0 -0.0 0.8312938914163103 0.5558331279205367
53 7.018127427788768 60.38258279101081 6.661821332636675 7.337562406836112 2.44585413561209 2.44585413561209 0.0 0.0 0.4937832216878833 0.8695850332081013
54 38.05766869816159 47.566705130896665 40.234470816346764 7.411306135015333 2.4704353783384416 2.4704353783384416 0.0 -0.0 0.7425013715714329 0.6698445440656666
55 24.423786076825035 42.37853992857697 14.53045170283147 7.411306135015333 2.4704353783384416 2.4704353783384416 0.0 -0.0 0.899222239431846 0.4374921303419936
56 40.80429401012769 7.0820832226514145 18.531444770952245 7.485790999984195 2.4952636666614048 2.4952636666614048 0.0 0.0 0.591041689671776 0.8066410112744902
57 53.61604263681209 59.432052812700334 56.28735815545358 7.485790999984195 2.4952636666614048 2.4952636666614048 0.0 0.0 0.6906372933410847 0.7232013060320761
58 26.63345596600332 37.32651030026891 33.574055892393396 7.5610244502911685 2.520341483430386 2.520341483430386 0.0 -0.0 0.9778925487455288 0.20910801779935065
59 37.78774546333862 57.537886164314756 21.356909348504658 7.5610244502911685 2.520341483430386 2.520341483430386 0.0 -0.0 0.8334397726994561 0.5526103014626843
60 53.595485423802586 27.295903536793038 52.88392473209443 7.637014009344248 2.5456713364480392 2.5456713364480392 0.0 -0.0 0.8251393648538317 0.5649292243888745
61 5.83617131451377 6.003328283101167 41.0814217379811 7.637014009344248 2.5456713364480392 2.5456713364480392 0.0 -0.0 0.8342848482439009 0.5513336485202505
62 18.334137156667556 8.262890723173522 41.8020827232001 7.713767276162237 2.571255758720704 2.571255758720704 0.0 0.0 0.6993489688984815 0.7147803996337831
63 35.503644198651195 4.7611833288844325 50.74857393784626 7.713767276162237 2.571255758720704 2.571255758720704 0.0 0.0 0.6638694557235675 0.747848477806363
64 42.8171769487906 34.44436381890632 47.1772184212783 7.79129192613607 2.597097308712015 2.597097308712015 0.0 0.0 0.5469534661185369 0.8371630103515794
65 16.46369241023207 28.50544652921125 6.861498729437192 7.79129192613607 2.597097308712015 2.597097308712015 0.0 0.0 0.534266604389083 0.8453160328744268
66 23.33388682083075 51.073271295989436 30.965769296815196 7.869595711795069 2.6231985705984004 2.6231985705984004 0.0 0.0 0.49259387534365895 0.8702593142126752
67 52.66731545408577 11.761024295926322 10.397656266905532 7.869595711795069 2.6231985705984004 2.6231985705984004 0.0 -0.0 0.7991221049958454 0.6011687461162707
68 37.781559338022724 21.157836752319024 23.330129322892418 7.948686463583615 2.649562154527882 2.649562154527882 0.0 -0.0 0.8113628171424923 0.5845428803420658
69 34.494857870493774 12.82914920964569 57.100454684439995 7.948686463583615 2.649562154527882 2.649562154527882 0.0 0.0 0.69974083585519 0.7143967823532522
70 13.068575641171071 60.34706855728994 17.35550376236165 8.028572090642287 2.6761906968807656 2.6761906968807656 0.0 -0.0 0.9226100212719841 0.3857340387475665
71 12.602500965651956 2.653105666688353 24.062385867594735 8.028572090642287 2.6761906968807656 2.6761906968807656 0.0 -0.0 0.8908476943010929 0.4543020862360491
72 7.469122938859133 41.979655694482915 7.8809195131072585 8.109260581600443 2.7030868605335163 2.7030868605335163 0.0 -0.0 0.9180976465577227 0.39635427509384946
73 40.156744145099864 33.9287285873114 27.640876543741594 8.109260581600443 2.7030868605335163 2.7030868605335163 0.0 0.0 0.6852526383261238 0.7283054453092375
74 40.143010581528486 16.378153329816033 13.806254833844472 8.190760005374672 2.7302533351248943 2.7302533351248943 0.0 0.0 0.6622208999947843 0.7493086677799063
75 49.664758171088494 36.07179774938563 47.415203723507 8.190760005374672 2.7302533351248943 2.7302533351248943 0.0 0.0 0.6669694181073614 0.7450850926636016
76 1.3336096096979255 15.446103962291334 29.853276011585226 8.273078511974907 2.7576928373250267 2.7576928373250267 0.0 0.0 0.4849872773235938 0.8745212066235144
77 13.448958207640382 42.86518994187722 20.859197705143522 8.273078511974907 2.7576928373250267 2.7576928373250267 0.0 -0.0 0.724549744492829 0.6892225096116464
78 1.8703450822626346 11.543963294138722 13.293575947954926 8.356224333320762 2.785408111106913 2.785408111106913 0.0 0.0 0.646327957303847 0.7630597431442944
79 2.045131269549686 22.66526801579794 28.05191717122039 8.356224333320762 2.785408111106913 2.785408111106913 0.0 0.0 0.4210348644808628 0.9070444547493698
80 3.127287294071255 9.190026722270979 22.92943181743444 8.440205784063512 2.8134019280211455 2.8134019280211455 0.0 0.0 0.5786941501693628 0.8155446527074768
81 53.94327116225436 51.63293196624031 27.81103130625522 8.440205784063512 2.8134019280211455 2.8134019280211455 0.0 0.0 0.683142879342022 0.730284743373632
82 10.366285854810547 4.4328247838097266 5.697589321780146 8.525031262418054 2.841677087472645 2.841677087472645 0.0 0.0 0.3480344086077516 0.937481760049257
83 15.155675588014681 42.749415165418164 2.330346868640009 8.525031262418054 2.841677087472645 2.841677087472645 0.0 -0.0 0.8280938516825816 0.560589486884571
84 34.667223831198974 23.348646068894613 5.771561201702613 8.610709251002993 2.870236417001034 2.870236417001034 0.0 -0.0 0.8521868438699086 0.5232375972109076
85 19.764549188220546 44.12887099959813 27.138501834702375 8.610709251002993 2.870236417001034 2.870236417001034 0.0 0.0 0.2683204071818837 0.9633297250109892
86 8.04109341457298 1.1240557480462439 57.5488722820403 8.697248317688766 2.899082772562915 2.899082772562915 0.0 0.0 0.5717525694490604 0.8204261083902665
87 8.315512254717419 56.93471413311377 45.636799148824046 8.697248317688766 2.899082772562915 2.899082772562915 0.0 -0.0 0.7407334016199733 0.6717990977401677
88 34.37509563076077 45.994032873093985 55.80662710360833 8.784657116454142 2.928219038818012 2.928219038818012 0.0 0.0 0.6524446383875427 0.7578363898885753
89 37.9717566294553 24.229576554169874 47.19447834087632 8.784657116454142 2.928219038818012 2.928219038818012 0.0 0.0 0.3815125934194192 0.9243636411404275
90 19.78263078482535 19.330029742453334 51.364735766821994 8.8729443882517 2.9576481294172026 2.9576481294172026 0.0 -0.0 0.7664413141092511 0.642314340511314
91 28.87475072880911 59.28502035811572 27.47087821833084 8.8729443882517 2.9576481294172026 2.9576481294172026 0.0 -0.0 0.7164030651197486 0.6976866404676452
92 50.32114252317246 16.737572724117555 34.29692506533436 8.962118961882052 2.987372987293995 2.987372987293995 0.0 0.0 0.3159382626609752 0.9487797500931208
93 16.47998396526638 34.05324672176112 36.98630689100704 8.962118961882052 2.987372987293995 2.987372987293995 0.0 -0.0 0.807675111463051 0.5896277760783901
94 51.33436480662261 15.786583581525914 47.455551473461405 9.052189754877087 3.017396584959038 3.017396584959038 0.0 0.0 0.5856043209472178 0.8105970511221638
95 39.38749761780513 60.56031218104376 54.65049179900318 9.052189754877087 3.017396584959038 3.017396584959038 0.0 -0.0 0.8283891439806925 0.5601530381377355
96 44.81833576000366 8.626115725158886 40.58598448320299 9.143165774391239 3.0477219247971172 3.0477219247971172 0.0 0.0 0.6380161188650698 0.7700230074928626
97 28.276939640825063 56.48413594938651 19.48994502484973 9.143165774391239 3.0477219247971172 3.0477219247971172 0.0 0.0 0.5652655734899162 0.8249089837231233
98 18.39511191462976 22.13592773985984 40.176462057395824 9.235056118102124 3.078352039367335 3.078352039367335 0.0 -0.0 0.9884337224668884 0.15165347437579585
99 47.07937427282491 42.22816877360361 7.347490444971266 9.235056118102124 3.078352039367335 3.078352039367335 0.0 0.0 0.644584962479319 0.7645326848117973
100 28.08862765811316 33.414903946897944 56.29178624036607 9.32786997512073 3.10928999170695 3.10928999170695 0.0 -0.0 0.7665764345255346 0.6421530736748979
101 14.929757978916737 24.363600948678798 0.4807256527785817 9.32786997512073 3.10928999170695 3.10928999170695 0.0 -0.0 0.7486465484609144 0.6629693397718779
102 40.967134799160924 41.557521898771235 9.574051851924636 9.421616626910037 3.140538875636725 3.140538875636725 0.0 -0.0 0.764238184631255 0.644934102952793
103 25.485902669935754 45.06077011682592 60.576604929292884 9.421616626910037 3.140538875636725 3.140538875636725 0.0 -0.0 0.7262700822056904 0.6874094614514261
104 50.667029391710614 59.814146004633756 50.548468961883415 9.516305448213608 3.1721018160711383 3.1721018160711383 0.0 0.0 0.6864264585310771 0.7271992278794606
105 24.382638651423274 51.03534559413044 11.02599737756641 9.516305448213608 3.1721018160711383 3.1721018160711383 0.0 -0.0 0.8498704758576332 0.5269916263713497
106 12.963675221566449 12.941235101685375 48.29548652433115 9.61194590799197 3.203981969330688 3.203981969330688 0.0 -0.0 0.793590538753224 0.6084521811953406
107 39.54044473714969 47.79550150302395 19.508812318546372 9.61194590799197 3.203981969330688 3.203981969330688 0.0 -0.0 0.8299364941277125 0.5578578812878792
108 54.7175284583777 43.65153463336721 58.325684487441805 9.70854757037132 3.236182523457076 3.236182523457076 0.0 -0.0 0.7596155095013813 0.650372414640225
109 59.66649927900781 38.280115449252776 4.558021789894918 9.70854757037132 3.236182523457076 3.236182523457076 0.0 -0.0 0.746179639226726 0.6657446552571586
110 46.18557507332331 15.77947493470948 51.90639197389169 9.80612009559811 3.268706698532674 3.268706698532674 0.0 -0.0 0.7434755474029917 0.6687631198068729
111 32.06009860694002 40.99573833563183 26.93428323838915 9.80612009559811 3.268706698532674 3.268706698532674 0.0 -0.0 0.7635489887521677 0.6457499065238353
112 51.6752749938796 0.07962969534430235 17.94790574725652 9.90467324100626 3.3015577470021498 3.3015577470021498 0.0 -0.0 0.925703395166632 0.3782502137170186
113 18.332949963579434 8.891637741966417 12.578342431611265 9.90467324100626 3.3015577470021498 3.3015577470021498 0.0 -0.0 0.7476030998596368 0.6641457709571461
114 6.9504206086395675 3.254883946834802 33.74674719090952 10.00421686199261 3.3347389539975008 3.3347389539975008 0.0 -0.0 0.7095009508808979 0.7047044775642494
115 28.394600713680386 15.298852940038731 52.535639170034294 10.00421686199261 3.3347389539975008 3.3347389539975008 0.0 0.0 0.692332939305712 0.7215782016887105
116 13.391607451716604 31.19447847333966 55.35765481969042 10.10476091300182 3.3682536376672845 3.3682536376672845 0.0 0.0 0.4838188577050026 0.8751681626573412
117 51.84162257156596 37.70625041785706 26.68039568996718 10.10476091300182 3.3682536376672845 3.3682536376672845 0.0 0.0 0.4072390243389004 0.9133216175343166
118 47.873476923127576 18.28640269478102 60.71262316543977 10.206315448522993 3.402105149507666 3.402105149507666 0.0 -0.0 0.9854258972554679 0.17010526452245991
119 38.62959837778307 29.410599597076914 59.58897304461476 10.206315448522993 3.402105149507666 3.402105149507666 0.0 0.0 0.693566054094668 0.720393037589587
120 28.092257844529996 24.867114288844313 31.074704588711974 10.308890624094492 3.4362968746981246 3.4362968746981246 0.0 -0.0 0.8546373086497397 0.5192254526349123
121 0.42598658814556634 38.24029054422057 57.13251540439679 10.308890624094492 3.4362968746981246 3.4362968746981246 0.0 -0.0 0.738138054050796 0.6746496966293722
122 56.85469684209179 27.428827979577783 0.20605445811604434 10.412496697319003 3.47083223243968 3.47083223243968 0.0 0.0 0.30497028615780525 0.9523618663936657
123 42.595749624119094 41.33224564181638 53.31140640830745 10.412496697319003 3.47083223243968 3.47083223243968 0.0 -0.0 0.8240326158671573 0.5665423620411186
124 7.78578018809634 48.43947079901036 0.023788374521458877 10.517144028890494 3.505714676296824 3.505714676296824 0.0 -0.0 0.7351480847541838 0.6779065521753388
125 60.8598588113649 58.60696517831601 53.313655546828954 10.517144028890494 3.505714676296824 3.505714676296824 0.0 0.0 0.6354145425399089 0.7721711980699606
126 32.778436825133106 0.6204901994673685 43.75532977619247 10.62284308362909 3.5409476945430534 3.5409476945430534 0.0 -0.0 0.9631928649301144 0.2688112812880415
127 58.136784924295206 21.581322752606397 42.12823471681955 10.62284308362909 3.5409476945430534 3.5409476945430534 0.0 0.0 0.6645731125154195 0.7472232451694524
128 8.20826840604061 49.84054770947388 52.826364679759436 10.729604431528296 3.5765348105094303 3.5765348105094303 0.0 -0.0 0.837305869343264 0.5467347447925007
129 32.187320545290326 0.06827217171109368 13.704533048396279 10.729604431528296 3.5765348105094303 3.5765348105094303 0.0 0.0 0.6718759690179156 0.7406636768846148
130 32.66910808667284 41.182452619587814 14.776901082585832 10.837438748812259 3.6124795829374103 3.6124795829374103 0.0 -0.0 0.8172568989423515 0.5762735124323614
131 2.8361236750792163 29.35981103695981 40.13145423628199 10.837438748812259 3.6124795829374103 3.6124795829374103 0.0 0.0 0.5650588956672867 0.8250505708302167
132 25.86032015890266 60.85589600616248 54.153884122833354 10.946356819002265 3.6487856063341106 3.6487856063341106 0.0 0.0 0.5632303093681869 0.8262999568008076
133 10.59098905293172 44.50999633930768 35.13684579465312 10.946356819002265 3.6487856063341106 3.6487856063341106 0.0 0.0 0.7047758212396541 0.7094300823872436
134 0.34210323132937287 33.80013160931781 49.30423373636113 11.056369533996062 3.685456511332011 3.685456511332011 0.0 -0.0 0.7457546235329385 0.6662207152882933
135 41.37719663605517 50.67761286249085 0.026860503827592197 11.056369533996062 3.685456511332011 3.685456511332011 0.0 0.0 0.5807371118896761 0.8140911539097067
136 20.807258741744512 5.2238015143231085 0.39361488906678743 11.167487895156988 3.7224959650523473 3.7224959650523473 0.0 -0.0 0.7765636880913803 0.6300387593933514
137 3.485164693259182 47.33122871152751 20.848144111385075 11.167487895156988 3.7224959650523473 3.7224959650523473 0.0 -0.0 0.9207785641385271 0.39008567754147583
138 52.71154992731227 15.448126368893485 25.989546196965964 11.279723014413758 3.75990767147122 3.75990767147122 0.0 0.0 0.5933031767685688 0.8049790931672228
139 8.09698476588691 11.616501394845912 59.953627676312585 11.279723014413758 3.75990767147122 3.75990767147122 0.0 0.0 0.36293328461656904 0.9318151270061183
140 59.55066317647531 59.241328860054054 39.16558069307955 11.393086115371954 3.797695371790645 3.797695371790645 0.0 0.0 0.5657838974393875 0.8245535649054563
141 19.664242393127378 46.2104873180992 54.93546360374163 11.393086115371954 3.797695371790645 3.797695371790645 0.0 0.0 0.5898626798291705 0.8075035720941112
142 6.741113046091995 18.83011923796328 8.368754449606769 11.50758853443553 3.8358628448119045 3.8358628448119045 0.0 0.0 0.494526605223718 0.8691624915548904
143 30.924560609270397 60.54424519673157 0.2998985515989475 11.50758853443553 3.8358628448119045 3.8358628448119045 0.0 0.0 0.6621201748514545 0.7493976741721844
144 10.35546364463696 27.716651758724037 45.96008521736399 11.623241721942488 3.874413907314227 3.874413907314227 0.0 -0.0 0.8358120424685423 0.5490156916378287
145 8.48401458955821 26.741538584851508 16.144947744130178 11.623241721942488 3.874413907314227 3.874413907314227 0.0 -0.0 0.7380766977143534 0.6747168208152773
146 20.756534051759548 56.02834600527118 47.93997917170007 11.74005724330764 3.913352414435938 3.913352414435938 0.0 0.0 0.5600689403365469 0.8284460043179022
147 38.546679874653215 20.53150508828297 34.13922623307987 11.74005724330764 3.913352414435938 3.913352414435938 0.0 -0.0 0.8053653384335279 0.5927787712543771
148 60.46638702125583 18.01525666341778 53.598387661633396 11.858046780180754 3.95268226006028 3.95268226006028 0.0 -0.0 0.9475491048281723 0.31961022189430877
149 45.69830093229278 58.48327001148244 25.900394775275124 11.858046780180754 3.95268226006028 3.95268226006028 0.0 -0.0 0.8855269061838191 0.46458809543994295
150 16.990627037674237 32.228257802531516 22.439074411350518 11.977222131613482 3.992407377204496 3.992407377204496 0.0 -0.0 0.8997163709941051 0.43647502994466686
151 30.915658073836056 31.875306748358447 41.25617509497025 11.977222131613482 3.992407377204496 3.992407377204496 0.0 0.0 0.6949034215940625 0.7191030765174521
152 56.4577125487486 2.8614056229981886 0.10789927106988638 12.097595215240462 4.032531738413465 4.032531738413465 0.0 0.0 0.6496096252583186 0.7602679361723385
153 32.369141404576 40.58991064112847 5.881444769840032 12.097595215240462 4.032531738413465 4.032531738413465 0.0 0.0 0.6980264017745981 0.7160720232110785
154 38.26170143390217 15.971688640060123 6.0493593608631 12.219178068470095 4.073059356156666 4.073059356156666 0.0 -0.0 0.9126309719920443 0.4087844284716046
155 23.556668906574078 32.76321719077362 8.719202114310429 12.219178068470095 4.073059356156666 4.073059356156666 0.0 0.0 0.34897032679986184 0.9371337743423815
156 32.03953916182976 46.16928539270737 48.99695261073037 12.341982849689554 4.113994283229763 4.113994283229763 0.0 0.0 0.6995675014656925 0.7145665195718649
157 25.13620313516638 30.79746466778277 46.84607614187353 12.341982849689554 4.113994283229763 4.113994283229763 0.0 0.0 0.63565327495599 0.7719746848425306
158 50.18799686155739 60.86155408398945 36.1907745119781 12.466021839478914 4.155340613159602 4.155340613159602 0.0 -0.0 0.7426985308561326 0.6696259345814963
159 23.274968990674807 22.706800031862112 14.307249897686617 12.466021839478914 4.155340613159602 4.155340613159602 0.0 0.0 0.4891044501540252 0.8722252213961303
160 47.10924335557711 0.7871966963196333 1.6804315393884854 12.591307441840511 4.197102480613532 4.197102480613532 0.0 0.0 0.6466947184788655 0.7627489371290798
161 29.76321109493377 9.288257088353207 36.36242125561895 12.591307441840511 4.197102480613532 4.197102480613532 0.0 0.0 0.6377575578887067 0.7702371695496348
162 60.00321419175954 0.4642317747435587 8.491400208231827 12.717852185438911 4.239284061812942 4.239284061812942 0.0 0.0 0.6701572236966805 0.7422191694689361
163 40.11897766567704 2.0432868353981872 32.87404393150564 12.717852185438911 4.239284061812942 4.239284061812942 0.0 -0.0 0.7797338016261434 0.6261111711203069
164 43.1152229727763 44.009956574680906 33.91587308475183 12.845668724854386 4.281889574951462 4.281889574951462 0.0 0.0 0.6966086930688543 0.7174512727293072
165 60.28622687991628 32.01505767830735 17.146448280669684 12.845668724854386 4.281889574951462 4.281889574951462 0.0 -0.0 0.8994069955971553 0.43711217813153935
7_T 19.816501623097807 -3.3105648108771675 37.39612658363983 4.632083145322169 1.5440277151073798 1.5440277151073798 0.0 -0.0 0.7603958793842515 0.6494598575858641
11_F 19.524522024863415 35.610425018463616 -0.21733685845756412 4.8211220446062795 1.6070406815354379 1.6070406815354379 0.0 0.0 0.49983922045674145 0.866118209999765
23_T 40.97362903696636 -1.215072295282006 45.94083344531471 5.435799926373431 1.8119333087911809 1.8119333087911809 0.0 -0.0 0.7582829367961579 0.651925599868416
25_B 14.69267426411471 62.540826160675195 51.87668916549602 5.545610369003636 1.8485367896678493 1.8485367896678493 0.0 0.0 0.6637035342538496 0.7479957343587923
26_R 63.22353981694421 44.9211877283226 29.31130654487628 5.601344679795748 1.8671148932652526 1.8671148932652526 0.0 0.0 0.5361151400853296 0.8441448670526212
30_T 19.913818556500427 -0.9248225267032666 26.870689156300756 5.82993989269665 1.9433132975655656 1.9433132975655656 0.0 -0.0 0.8433777540022546 0.5373210995802349
31_L -0.858432709104541 41.63963767109622 32.019270962087376 5.888531762708832 1.9628439209029886 1.9628439209029886 0.0 0.0 0.6952778540174372 0.7187410560924617
36_F 40.98177265522074 6.434838414011508 -1.4902692476091417 6.1904432422279205 2.063481080742686 2.063481080742686 0.0 -0.0 0.739632735620696 0.6730107104632479
40_L -1.4616692902763475 21.359991799962987 14.824719887498912 6.443080023537413 2.1476933411791164 2.1476933411791164 0.0 -0.0 0.8608342640850161 0.5088854191045453
42_B 11.73283633897218 61.5755143829619 38.81453842447741 6.573238873912318 2.191079624637475 2.191079624637475 0.0 0.0 0.6858728758951139 0.7277213739552836
43_L -0.9416933460499024 40.89490420182671 43.474272106461214 6.639301022879427 2.2131003409597834 2.2131003409597834 0.0 -0.0 0.8971229945165649 0.4417808650333688
48_R 61.035631114396594 46.48102254562892 13.810016322802062 6.979705265492892 2.326568421830965 2.326568421830965 0.0 0.0 0.43861391052531945 0.8986756019241242
49_B 25.74194642044063 63.98524046534501 5.906223781876316 7.049852469609292 2.3499508232030997 2.3499508232030997 0.0 -0.0 0.7611420715427216 0.6485851886434459
50_F 25.909269120717678 19.18314850720135 -1.0144284825070713 7.120704664847657 2.373568221615855 2.373568221615855 0.0 0.0 0.5689873473401131 0.8223462765568174
53_T 7.018127427788768 -0.5174172089891869 6.661821332636675 7.337562406836112 2.44585413561209 2.44585413561209 0.0 0.0 0.4937832216878833 0.8695850332081013
56_B 40.80429401012769 67.98208322265141 18.531444770952245 7.485790999984195 2.4952636666614048 2.4952636666614048 0.0 0.0 0.591041689671776 0.8066410112744902
57_T 53.61604263681209 -1.4679471872996643 56.28735815545358 7.485790999984195 2.4952636666614048 2.4952636666614048 0.0 0.0 0.6906372933410847 0.7232013060320761
59_T 37.78774546333862 -3.3621138356852427 21.356909348504658 7.5610244502911685 2.520341483430386 2.520341483430386 0.0 -0.0 0.8334397726994561 0.5526103014626843
61_B 5.83617131451377 66.90332828310116 41.0814217379811 7.637014009344248 2.5456713364480392 2.5456713364480392 0.0 -0.0 0.8342848482439009 0.5513336485202505
63_B 35.503644198651195 65.66118332888443 50.74857393784626 7.713767276162237 2.571255758720704 2.571255758720704 0.0 0.0 0.6638694557235675 0.747848477806363