ITEM: TIMESTEP
277
ITEM: NUMBER OF ATOMS
204
ITEM: BOX BOUNDS ff ff ff
0 60.9
60.9 0
60.9 0
ITEM: ATOMS id x y z AsphericalShapeX AsphericalShapeY AsphericalShapeZ OrientationX OrientationY OrientationZ OrientationW
1 42.7043125652957 51.38730944449421 25.150424695274875 1.962343351391621 0.6541144504638784 0.6541144504638784 0.0 -0.0 0.7863642711635499 0.6177630881150306
2 19.416073884836425 8.48385141267114 25.422794509930206 1.9820652299496264 0.6606884099832039 0.6606884099832039 0.0 -0.0 0.8896314041555925 0.4566792799549252
3 14.329198916853777 24.0116383996405 54.83494194435291 2.001985316682339 0.6673284388941118 0.6673284388941118 0.0 0.0 0.631512325711268 0.7753658378305981
4 22.40371709177716 51.08129183396955 40.830863722936485 2.02210560361505 0.6740352012050114 0.6740352012050114 0.0 0.0 0.5765741652112841 0.8170448164029381
5 52.25943460103729 11.727571267506779 20.779509723289507 2.0424281027932163 0.6808093675977321 0.6808093675977321 0.0 -0.0 0.8873914294477543 0.4610167577677315
6 22.68410730101076 5.831028809664384 19.03598126013976 2.062954846483664 0.6876516154945607 0.6876516154945607 0.0 0.0 0.643710445538684 0.7652691437033046
7 44.58311629669727 1.6004314403255693 24.35777753198907 2.0836878873779336 0.6945626291259793 0.6945626291259793 0.0 -0.0 0.7603958793842515 0.6494598575858641
8 48.08061838031835 35.54038571257184 8.790444146080295 2.1046292987973456 0.7015430995991108 0.7015430995991108 0.0 -0.0 0.7854601334426244 0.6189122545016335
9 48.39299374587558 60.138321839713036 54.75240658090448 2.12578117490049 0.7085937249668315 0.7085937249668315 0.0 -0.0 0.7176002965020949 0.6964551776389529
10 18.773232204527385 0.30943017326828315 13.887590263963746 2.147145630892605 0.7157152102975394 0.7157152102975394 0.0 0.0 0.38534345666417513 0.9227732226317065
11 25.002943153029918 9.913855577908416 3.8533659437661143 2.1687248032371285 0.7229082677457076 0.7229082677457076 0.0 0.0 0.49983922045674145 0.866118209999765
12 7.496158912858743 0.9725870456312928 20.887044144011057 2.190520849869238 0.7301736166230743 0.7301736166230743 0.0 0.0 0.2746680171135514 0.9615391205639581
13 17.395432901013994 54.43735935418477 34.3010216070297 2.2125359504117776 0.7375119834705905 0.7375119834705905 0.0 -0.0 0.7886508549344257 0.614841303924191
14 23.34987193460363 36.041973107868195 16.05550807132432 2.2347723063931477 0.7449241021310425 0.7449241021310425 0.0 -0.0 0.7750680292508737 0.6318777967559605
15 21.215550031319165 56.31079856815239 24.847584290349324 2.2572321414674636 0.7524107138224855 0.7524107138224855 0.0 0.0 0.6340811782098568 0.7732664866913604
16 19.652407426834223 34.27575662628749 51.2723533775322 2.27991770163697 0.7599725672123208 0.7599725672123208 0.0 -0.0 0.7629176367612683 0.6464956918020424
17 31.32481626183972 27.384001534631317 37.76034067419908 2.3028312554765624 0.7676104184921881 0.7676104184921881 0.0 0.0 0.6579222258448839 0.7530858813836
18 46.41449675647766 39.48125697457756 5.484491017169247 2.325975094360751 0.7753250314535842 0.7753250314535842 0.0 0.0 0.506211649243881 0.8624092799650234
19 20.511272678492766 15.575007265015326 40.50776037987448 2.349351532692695 0.7831171775642283 0.7831171775642283 0.0 0.0 0.6434542777811493 0.7654845474633303
20 21.647273743404636 55.4982395671779 14.800099504876915 2.3729629081356993 0.7909876360452375 0.7909876360452375 0.0 -0.0 0.7861857262579329 0.6179902942832407
21 42.19746903522715 17.640091433236904 46.11039663746538 2.396811581847004 0.7989371939489935 0.7989371939489935 0.0 0.0 0.6069811502172251 0.7947162281474907
22 58.77494972268774 53.34457864241421 52.063916081047786 2.4208999387138097 0.8069666462379425 0.8069666462379425 0.0 -0.0 0.8910647246123514 0.45387625687131333
23 42.43621903931507 11.770703812284594 47.265280215850915 2.445230387591959 0.8150767958639812 0.8150767958639812 0.0 -0.0 0.7582829367961579 0.651925599868416
24 23.099863499030583 14.659036065216542 52.79055893713694 2.469805361546543 0.82326845384885 0.82326845384885 0.0 0.0 0.5255054740936084 0.8507902189715464
25 13.652805476656248 2.5994987134842837 8.914743119636777 2.49462731809546 0.8315424393651492 0.8315424393651492 0.0 0.0 0.6637035342538496 0.7479957343587923
26 56.19902925454867 15.395451258982112 49.803597682537394 2.5196987394550354 0.8398995798183496 0.8398995798183496 0.0 0.0 0.5361151400853296 0.8441448670526212
27 58.825867194344895 24.121071433555873 20.244985886984036 2.5450221327883265 0.8483407109294487 0.8483407109294487 0.0 -0.0 0.7297620279401082 0.6837012378054764
28 10.003594725205863 52.06780429161624 36.326741360289056 2.570600030455755 0.856866676818581 0.856866676818581 0.0 -0.0 0.9828164757017253 0.18458541407500267
29 44.141562884120695 32.71144483209171 27.213495614368295 2.596434990268408 0.8654783300894677 0.8654783300894677 0.0 -0.0 0.8740853421614372 0.4857723897243679
30 17.708382995700987 5.276439805794179 26.534869191915615 2.622529595743783 0.8741765319145924 0.8741765319145924 0.0 -0.0 0.8433777540022546 0.5373210995802349
31 47.553911282467084 47.94928468168537 51.814951921222686 2.648886456364186 0.8829621521213941 0.8829621521213941 0.0 0.0 0.6952778540174372 0.7187410560924617
32 7.551073838275837 47.94552811242332 44.252002658670825 2.675508207837628 0.8918360692792073 0.8918360692792073 0.0 0.0 0.6353234605105568 0.7722461398575527
33 30.931930226573776 12.938794850130835 23.141964669280217 2.702397512361463 0.9007991707871508 0.9007991707871508 0.0 0.0 0.6411270229476993 0.7674347792784871
34 2.4508925970655704 23.06222708686651 44.125452566515015 2.7295570588885316 0.9098523529628427 0.9098523529628427 0.0 -0.0 0.7453722743584635 0.6666484625480594
35 35.51087718871094 40.8283196644701 43.2813489060378 2.756989563396138 0.9189965211320495 0.9189965211320495 0.0 -0.0 0.7109313362059317 0.7032614273514853
36 27.580393775445792 23.851473590797525 18.13562735284048 2.7846977691575665 0.9282325897191872 0.9282325897191872 0.0 -0.0 0.739632735620696 0.6730107104632479
37 9.815596363893048 49.81639249284521 11.966693678534693 2.812684447016519 0.9375614823388391 0.9375614823388391 0.0 0.0 0.5163603530767541 0.8563714064414165
38 18.040319270982955 56.99689198065281 9.655729569605489 2.8409523956640634 0.9469841318880176 0.9469841318880176 0.0 0.0 0.5145463711011363 0.8574625542766586
39 12.508163302163855 25.198832661761458 17.179962190276 2.869504441918658 0.9565014806395529 0.9565014806395529 0.0 0.0 0.5880831456971182 0.8088004783300898
40 54.82472908876209 34.62028517062671 17.672989920466165 2.898343441008717 0.9661144803362334 0.9661144803362334 0.0 -0.0 0.8608342640850161 0.5088854191045453
41 46.73580147707536 9.485806044300887 60.33794031472053 2.9274722768581474 0.9758240922860529 0.9758240922860529 0.0 0.0 0.5813114541301716 0.8136811373609846
42 6.239425063874225 3.900224787383399 36.67699772148928 2.956893862374845 0.9856312874582817 0.9856312874582817 0.0 0.0 0.6858728758951139 0.7277213739552836
43 53.687240000641324 59.56152416776229 29.84995276510412 2.9866111397418504 0.9955370465806271 0.9955370465806271 0.0 -0.0 0.8971229945165649 0.4417808650333688
44 39.907581375474976 16.90024822945097 39.49174275288896 3.0166270807117206 1.0055423602372375 1.0055423602372375 0.0 -0.0 0.7662793896249596 0.6425075073771507
45 25.470906001916497 25.746087767164 25.891531343410573 3.046944686903469 1.0156482289678221 1.0156482289678221 0.0 -0.0 0.8021859139948743 0.5970743332184094
46 15.992145403190378 40.240457290673966 13.343883731376891 3.0775669901030853 1.0258556633676954 1.0258556633676954 0.0 0.0 0.6689296931602822 0.7433256793683982
47 56.00632599570863 20.927173994741818 19.037633840640776 3.108497052566327 1.0361656841887759 1.0361656841887759 0.0 -0.0 0.8121614142020023 0.5834328044268712
48 51.9260657097195 3.2161601222014062 22.768921439890324 3.1397379673252774 1.04657932244176 1.04657932244176 0.0 0.0 0.43861391052531945 0.8986756019241242
49 20.7381144557573 28.403053632661205 2.9603714985479126 3.171292858497385 1.0570976194991262 1.0570976194991262 0.0 -0.0 0.7611420715427216 0.6485851886434459
50 30.601710028528807 28.101300880142496 52.40796231122899 3.2031648815981035 1.0677216271993772 1.0677216271993772 0.0 0.0 0.5689873473401131 0.8223462765568174
51 10.679800869028346 27.17733090930502 41.47344031429062 3.2353572238563326 1.0784524079521023 1.0784524079521023 0.0 -0.0 0.9816329176571261 0.1907794930592849
52 35.511404490440725 2.6103733132671953 22.916682558290972 3.267873104533037 1.0892910348443512 1.0892910348443512 0.0 -0.0 0.8312938914163103 0.5558331279205367
53 18.01692541216943 45.920080106246076 8.5880004073285 3.300715775243448 1.1002385917478188 1.1002385917478188 0.0 0.0 0.4937832216878833 0.8695850332081013
54 29.805835104448956 49.34449550630729 39.250074401960354 3.3338885202819943 1.1112961734273286 1.1112961734273286 0.0 -0.0 0.7425013715714329 0.6698445440656666
55 18.82782316652446 49.11824816783464 6.783276299792255 3.3338885202819943 1.1112961734273286 1.1112961734273286 0.0 -0.0 0.899222239431846 0.4374921303419936
56 47.07407394207609 13.037971973686176 31.12285742559053 3.36739465695082 1.122464885650278 1.122464885650278 0.0 0.0 0.591041689671776 0.8066410112744902
57 51.63578041967901 3.1199185357037456 47.18451512384251 3.36739465695082 1.122464885650278 1.122464885650278 0.0 0.0 0.6906372933410847 0.7232013060320761
58 47.466658099475964 53.95532387991307 29.89504197270865 3.4012375358915117 1.133745845297167 1.133745845297167 0.0 -0.0 0.9778925487455288 0.20910801779935065
59 30.79398405514647 52.67726946484437 33.40375581238396 3.4012375358915117 1.133745845297167 1.133745845297167 0.0 -0.0 0.8334397726994561 0.5526103014626843
60 36.05531750094502 28.422447257384412 7.40135928872828 3.4354205414201693 1.1451401804733898 1.1451401804733898 0.0 -0.0 0.8251393648538317 0.5649292243888745
61 12.051653659035193 26.36568212063702 34.67752730965159 3.4354205414201693 1.1451401804733898 1.1451401804733898 0.0 -0.0 0.8342848482439009 0.5513336485202505
62 5.270725597902701 36.61720266004675 26.71102787554991 3.469947091865806 1.1566490306219377 1.1566490306219377 0.0 0.0 0.6993489688984815 0.7147803996337831
63 35.3875370266703 49.61135160632511 60.08643789456535 3.469947091865806 1.1566490306219377 1.1566490306219377 0.0 0.0 0.6638694557235675 0.747848477806363
64 31.321519802025577 58.15214210437232 49.71321482769987 3.504820639912323 1.1682735466374325 1.1682735466374325 0.0 0.0 0.5469534661185369 0.8371630103515794
65 21.297627779153434 7.184490326667011 9.463697103323529 3.504820639912323 1.1682735466374325 1.1682735466374325 0.0 0.0 0.534266604389083 0.8453160328744268
66 39.86746038837756 9.951762721656529 19.88452842998508 3.540044672943472 1.1800148909811567 1.1800148909811567 0.0 0.0 0.49259387534365895 0.8702593142126752
67 60.03166880207179 0.8205841342495777 15.256536055861885 3.540044672943472 1.1800148909811567 1.1800148909811567 0.0 -0.0 0.7991221049958454 0.6011687461162707
68 31.545517581422782 17.934213852518088 8.116369260021964 3.5756227133919394 1.1918742377973188 1.1918742377973188 0.0 -0.0 0.8113628171424923 0.5845428803420658
69 44.378209037386476 60.2924978024206 54.70181357516716 3.5756227133919394 1.1918742377973188 1.1918742377973188 0.0 0.0 0.69974083585519 0.7143967823532522
70 40.372374426393705 54.76695856102003 24.997868989885493 3.6115583190915013 1.2038527730304933 1.2038527730304933 0.0 -0.0 0.9226100212719841 0.3857340387475665
71 35.12043481599214 18.602378335062514 30.040069866854893 3.6115583190915013 1.2038527730304933 1.2038527730304933 0.0 -0.0 0.8908476943010929 0.4543020862360491
72 0.42412261363663284 47.534854075424825 6.7263056200932 3.6478550836326025 1.2159516945441926 1.2159516945441926 0.0 -0.0 0.9180976465577227 0.39635427509384946
73 59.4064024409795 9.285719250392425 42.41864313045944 3.6478550836326025 1.2159516945441926 1.2159516945441926 0.0 0.0 0.6852526383261238 0.7283054453092375
74 8.569991757043212 38.270162616111286 18.923024217490894 3.6845166367219266 1.2281722122406455 1.2281722122406455 0.0 0.0 0.6622208999947843 0.7493086677799063
75 53.39213605599115 17.070405499999247 28.090411210304893 3.6845166367219266 1.2281722122406455 1.2281722122406455 0.0 0.0 0.6669694181073614 0.7450850926636016
76 6.568616492326512 17.62962248046389 15.774071196359664 3.7215466445453598 1.2405155481817944 1.2405155481817944 0.0 0.0 0.4849872773235938 0.8745212066235144
77 12.718774532853521 3.106530169482325 5.35198012310549 3.7215466445453598 1.2405155481817944 1.2405155481817944 0.0 -0.0 0.724549744492829 0.6892225096116464
78 8.38983137406838 3.746295136462874 5.907781301736289 3.7589488101345716 1.252982936711524 1.252982936711524 0.0 0.0 0.646327957303847 0.7630597431442944
79 0.5133933095078136 26.07239361792846 15.519049974867695 3.7589488101345716 1.252982936711524 1.252982936711524 0.0 0.0 0.4210348644808628 0.9070444547493698
80 55.564903946840296 12.881747882681603 20.009826407678894 3.7967268737372564 1.2655756245790843 1.2655756245790843 0.0 0.0 0.5786941501693628 0.8155446527074768
81 8.92291641529818 7.58861647217443 45.292613080097944 3.7967268737372564 1.2655756245790843 1.2655756245790843 0.0 0.0 0.683142879342022 0.730284743373632
82 18.247280371937293 2.0538353276974486 0.30378400543600514 3.8348846131912566 1.2782948710637496 1.2782948710637496 0.0 0.0 0.3480344086077516 0.937481760049257
83 21.414848599229444 9.150451878612246 60.00307849014141 3.8348846131912566 1.2782948710637496 1.2782948710637496 0.0 -0.0 0.8280938516825816 0.560589486884571
84 34.146803050280376 40.55611437355236 19.699412689682035 3.873425844302362 1.291141948100788 1.291141948100788 0.0 -0.0 0.8521868438699086 0.5232375972109076
85 10.593224582004726 38.519727341647645 23.93389651480307 3.873425844302362 1.291141948100788 1.291141948100788 0.0 0.0 0.2683204071818837 0.9633297250109892
86 12.258782183808346 28.85656144961582 60.086469540797914 3.912354421225704 1.3041181404085787 1.3041181404085787 0.0 0.0 0.5717525694490604 0.8204261083902665
87 26.350878908574654 11.609130539663589 38.277826885710596 3.912354421225704 1.3041181404085787 1.3041181404085787 0.0 -0.0 0.7407334016199733 0.6717990977401677
88 15.437522311979603 32.99277979985312 53.46305901359486 3.951674236851508 1.3172247456171668 1.3172247456171668 0.0 0.0 0.6524446383875427 0.7578363898885753
89 10.697318361893648 24.57553712123402 30.906332496470586 3.951674236851508 1.3172247456171668 1.3172247456171668 0.0 0.0 0.3815125934194192 0.9243636411404275
90 21.342067237949713 60.73493961615144 47.140172494886485 3.9913892231940657 1.3304630743980221 1.3304630743980221 0.0 -0.0 0.7664413141092511 0.642314340511314
91 29.254078422239445 12.213745691349965 37.4259199021035 3.9913892231940657 1.3304630743980221 1.3304630743980221 0.0 -0.0 0.7164030651197486 0.6976866404676452
92 53.533951423899815 34.72095235696327 38.5911212354518 4.031503351785116 1.3438344505950364 1.3438344505950364 0.0 0.0 0.3159382626609752 0.9487797500931208
93 17.442479590988828 36.42104198660077 39.479215639088935 4.031503351785116 1.3438344505950364 1.3438344505950364 0.0 -0.0 0.807675111463051 0.5896277760783901
94 48.0195627407106 11.597956765218871 49.85842648884374 4.07202063407096 1.3573402113569872 1.3573402113569872 0.0 0.0 0.5856043209472178 0.8105970511221638
95 36.65199529169443 16.332279352020276 50.862622739998216 4.07202063407096 1.3573402113569872 1.3573402113569872 0.0 -0.0 0.8283891439806925 0.5601530381377355
96 35.68228189372366 11.927174150613553 42.303087409674085 4.112945121813519 1.3709817072711836 1.3709817072711836 0.0 0.0 0.6380161188650698 0.7700230074928626
97 18.966948413308806 18.337925154416713 24.45693623507564 4.112945121813519 1.3709817072711836 1.3709817072711836 0.0 0.0 0.5652655734899162 0.8249089837231233
98 26.19122588169438 18.259134957016048 38.705909289449494 4.154280907495761 1.384760302498596 1.384760302498596 0.0 -0.0 0.9884337224668884 0.15165347437579585
99 50.64165871380621 30.453297275972016 7.890016804154042 4.154280907495761 1.384760302498596 1.384760302498596 0.0 0.0 0.644584962479319 0.7645326848117973
100 34.575256841761004 33.33689781220965 50.65085014596432 4.196032124730699 1.3986773749102246 1.3986773749102246 0.0 -0.0 0.7665764345255346 0.6421530736748979
101 25.862292289698587 34.18640059994545 1.5096155363177965 4.196032124730699 1.3986773749102246 1.3986773749102246 0.0 -0.0 0.7486465484609144 0.6629693397718779
102 43.07259695804323 42.98066553466946 9.961195317932837 4.238202948674767 1.4127343162249213 1.4127343162249213 0.0 -0.0 0.764238184631255 0.644934102952793
103 31.40130162675891 29.797862246344483 17.2153756898533 4.238202948674767 1.4127343162249213 1.4127343162249213 0.0 -0.0 0.7262700822056904 0.6874094614514261
104 48.045812875491414 47.20118813780352 38.2736420005818 4.280797596445588 1.4269325321485151 1.4269325321485151 0.0 0.0 0.6864264585310771 0.7271992278794606
105 15.713099348988253 9.02086368145163 24.461736975667822 4.280797596445588 1.4269325321485151 1.4269325321485151 0.0 -0.0 0.8498704758576332 0.5269916263713497
106 15.11521140406261 3.426287602172382 55.00086325394038 4.323820327543351 1.441273442514451 1.441273442514451 0.0 -0.0 0.793590538753224 0.6084521811953406
107 46.22366341330134 52.29830951831179 20.225855071905862 4.323820327543351 1.441273442514451 1.441273442514451 0.0 -0.0 0.8299364941277125 0.5578578812878792
108 59.36979280314268 0.43773269613236737 3.6924888389997266 4.3672754442770945 1.4557584814256859 1.4557584814256859 0.0 -0.0 0.7596155095013813 0.650372414640225
109 17.552648638343562 1.9719586081824982 41.47983451602668 4.3672754442770945 1.4557584814256859 1.4557584814256859 0.0 -0.0 0.746179639226726 0.6657446552571586
110 28.056434405723838 55.04697034813632 45.651648076446754 4.411167292194653 1.4703890973982046 1.4703890973982046 0.0 -0.0 0.7434755474029917 0.6687631198068729
111 36.72913608233193 49.139929952485105 17.55671558020302 4.411167292194653 1.4703890973982046 1.4703890973982046 0.0 -0.0 0.7635489887521677 0.6457499065238353
112 47.11639008708489 59.17649281695788 36.505465767355716 4.455500260517391 1.4851667535058102 1.4851667535058102 0.0 -0.0 0.925703395166632 0.3782502137170186
113 14.081552513200652 12.12187221480718 26.079779874367546 4.455500260517391 1.4851667535058102 1.4851667535058102 0.0 -0.0 0.7476030998596368 0.6641457709571461
114 56.30904810290776 10.06235636061912 36.375008392743354 4.5002787825791515 1.5000929275263843 1.5000929275263843 0.0 -0.0 0.7095009508808979 0.7047044775642494
115 23.60201137384368 36.11734446659025 58.14927920838685 4.5002787825791515 1.5000929275263843 1.5000929275263843 0.0 0.0 0.692332939305712 0.7215782016887105
116 18.8014315702195 33.36003940337592 48.85445572813469 4.545507336269422 1.5151691120897999 1.5151691120897999 0.0 0.0 0.4838188577050026 0.8751681626573412
117 57.745861611157025 41.580417380958714 39.877907442996445 4.545507336269422 1.5151691120897999 1.5151691120897999 0.0 0.0 0.4072390243389004 0.9133216175343166
118 47.3869610279825 60.1497114209815 4.730099702353562 4.591190444481221 1.530396814827075 1.530396814827075 0.0 -0.0 0.9854258972554679 0.17010526452245991
119 24.860245032407803 45.50334576097232 2.1307470200827354 4.591190444481221 1.530396814827075 1.530396814827075 0.0 0.0 0.693566054094668 0.720393037589587
120 46.39759425390257 53.3367675671333 35.351311394370036 4.63733267556349 1.5457775585211648 1.5457775585211648 0.0 -0.0 0.8546373086497397 0.5192254526349123
121 59.09623757202737 10.545482122754366 1.116311939035803 4.63733267556349 1.5457775585211648 1.5457775585211648 0.0 -0.0 0.738138054050796 0.6746496966293722
122 38.59719387854985 38.931803559564365 45.20926490421586 4.683938643777801 1.5613128812592714 1.5613128812592714 0.0 0.0 0.30497028615780525 0.9523618663936657
123 48.84221344870858 35.542955309763556 40.913246442534124 4.683938643777801 1.5613128812592714 1.5613128812592714 0.0 -0.0 0.8240326158671573 0.5665423620411186
124 37.63912287605081 54.928407919019065 1.4632097788597804 4.731013009759788 1.5770043365865887 1.5770043365865887 0.0 -0.0 0.7351480847541838 0.6779065521753388
125 29.227843999294883 45.77963302726271 43.31115340070643 4.731013009759788 1.5770043365865887 1.5770043365865887 0.0 0.0 0.6354145425399089 0.7721711980699606
126 21.291636888847137 23.164416207795583 39.38558193991934 4.778560480985241 1.5928534936617351 1.5928534936617351 0.0 -0.0 0.9631928649301144 0.2688112812880415
127 1.6171930193775519 31.875707578746262 46.98506654542124 4.778560480985241 1.5928534936617351 1.5928534936617351 0.0 0.0 0.6645731125154195 0.7472232451694524
128 22.931396405356068 52.4491202193862 47.08482664655306 4.826585812240895 1.6088619374136297 1.6088619374136297 0.0 -0.0 0.837305869343264 0.5467347447925007
129 56.02780677071661 27.875905616850567 51.45319383830326 4.826585812240895 1.6088619374136297 1.6088619374136297 0.0 0.0 0.6718759690179156 0.7406636768846148
130 31.16653579019855 42.67195849315029 6.434361174111313 4.875093806100022 1.6250312687000004 1.6250312687000004 0.0 -0.0 0.8172568989423515 0.5762735124323614
131 13.251363161398551 29.41535670316367 52.79230890953892 4.875093806100022 1.6250312687000004 1.6250312687000004 0.0 0.0 0.5650588956672867 0.8250505708302167
132 35.917734578004634 32.52131972709485 0.4678516986463023 4.924089313402325 1.6413631044674284 1.6413631044674284 0.0 0.0 0.5632303093681869 0.8262999568008076
133 15.476495159373073 54.12823048837824 39.10297776691434 4.924089313402325 1.6413631044674284 1.6413631044674284 0.0 0.0 0.7047758212396541 0.7094300823872436
134 46.88526409641149 26.26493368737661 42.48562581210738 4.97357723373937 1.6578590779131135 1.6578590779131135 0.0 -0.0 0.7457546235329385 0.6662207152882933
135 2.544311601585588 52.12687149375602 1.7327450303114267 4.97357723373937 1.6578590779131135 1.6578590779131135 0.0 0.0 0.5807371118896761 0.8140911539097067
136 17.307113980078125 57.28850280582353 58.955561280218284 5.023562515944473 1.6745208386481618 1.6745208386481618 0.0 -0.0 0.7765636880913803 0.6300387593933514
137 54.426421892881244 26.50076473564708 28.970238931365714 5.023562515944473 1.6745208386481618 1.6745208386481618 0.0 -0.0 0.9207785641385271 0.39008567754147583
138 34.63909952694638 43.52129601522757 11.916283278739854 5.07405015858745 1.691350052862487 1.691350052862487 0.0 0.0 0.5933031767685688 0.8049790931672228
139 52.55822973530761 12.600562416654036 4.629785482551592 5.07405015858745 1.691350052862487 1.691350052862487 0.0 0.0 0.36293328461656904 0.9318151270061183
140 10.65174481769943 51.89525327467181 26.640641977181485 5.12504521047475 1.7083484034915768 1.7083484034915768 0.0 0.0 0.5657838974393875 0.8245535649054563
141 53.53449956259187 33.77002571680639 4.070248747547739 5.12504521047475 1.7083484034915768 1.7083484034915768 0.0 0.0 0.5898626798291705 0.8075035720941112
142 0.5551897366597951 32.12824221483585 8.446053382075956 5.176552771153889 1.725517590384641 1.725517590384641 0.0 0.0 0.494526605223718 0.8691624915548904
143 32.012218449378736 7.714151135817362 4.12863901532523 5.176552771153889 1.725517590384641 1.725517590384641 0.0 0.0 0.6621201748514545 0.7493976741721844
144 18.022121682264157 26.32825209954312 44.30099133723572 5.228577991424005 1.7428593304746756 1.7428593304746756 0.0 -0.0 0.8358120424685423 0.5490156916378287
145 59.72660589276773 41.30074160856839 18.930803679000885 5.228577991424005 1.7428593304746756 1.7428593304746756 0.0 -0.0 0.7380766977143534 0.6747168208152773
146 32.14039597616046 49.27607486968214 51.060157816926356 5.281126073850437 1.7603753579501464 1.7603753579501464 0.0 0.0 0.5600689403365469 0.8284460043179022
147 39.916448757823 21.807977027569564 45.00946496462798 5.281126073850437 1.7603753579501464 1.7603753579501464 0.0 -0.0 0.8053653384335279 0.5927787712543771
148 8.250198498476637 39.886500654899756 49.699131385470054 5.33420227328519 1.7780674244283825 1.7780674244283825 0.0 -0.0 0.9475491048281723 0.31961022189430877
149 0.9238749699355253 28.92527081057933 26.136133876420963 5.33420227328519 1.7780674244283825 1.7780674244283825 0.0 -0.0 0.8855269061838191 0.46458809543994295
150 39.35736093704352 8.745647498395599 6.037445933558672 5.387811897392463 1.795937299130823 1.795937299130823 0.0 -0.0 0.8997163709941051 0.43647502994466686
151 31.85394385639397 34.631240068274266 43.087690097037296 5.387811897392463 1.795937299130823 1.795937299130823 0.0 0.0 0.6949034215940625 0.7191030765174521
152 51.0103181710989 49.25514538077704 7.927235379156195 5.4419603071793174 1.8139867690597569 1.8139867690597569 0.0 0.0 0.6496096252583186 0.7602679361723385
153 31.1818110737949 51.11899683502804 8.814915697703844 5.4419603071793174 1.8139867690597569 1.8139867690597569 0.0 0.0 0.6980264017745981 0.7160720232110785
154 56.0966581334795 20.00121866609591 6.941249015300551 5.496652917531855 1.8322176391772924 1.8322176391772924 0.0 -0.0 0.9126309719920443 0.4087844284716046
155 13.767573937186608 42.52712445884133 3.6555459762022435 5.496652917531855 1.8322176391772924 1.8322176391772924 0.0 0.0 0.34897032679986184 0.9371337743423815
156 21.84557129386925 28.89608367126422 56.25638152286798 5.551895197756712 1.8506317325855843 1.8506317325855843 0.0 0.0 0.6995675014656925 0.7145665195718649
157 23.14232679281973 38.43655279173865 45.34557959198446 5.551895197756712 1.8506317325855843 1.8506317325855843 0.0 0.0 0.63565327495599 0.7719746848425306
158 43.795357749220805 6.7911218657490195 38.92268416423917 5.607692672127968 1.869230890709317 1.869230890709317 0.0 -0.0 0.7426985308561326 0.6696259345814963
159 9.149176201817436 9.844474891174833 11.788943041984513 5.607692672127968 1.869230890709317 1.869230890709317 0.0 0.0 0.4891044501540252 0.8722252213961303
160 51.36909127420973 43.71105880963583 19.896797996032053 5.664050920439529 1.8880169734798418 1.8880169734798418 0.0 0.0 0.6466947184788655 0.7627489371290798
161 32.81738492440633 17.203348244890194 36.88267908967642 5.664050920439529 1.8880169734798418 1.8880169734798418 0.0 0.0 0.6377575578887067 0.7702371695496348
162 19.92395960770316 8.398070988405342 18.02829715552772 5.720975578563189 1.9069918595210642 1.9069918595210642 0.0 0.0 0.6701572236966805 0.7422191694689361
163 38.16248027269082 47.42189469383913 32.596924870044894 5.720975578563189 1.9069918595210642 1.9069918595210642 0.0 -0.0 0.7797338016261434 0.6261111711203069
164 53.95205245861171 39.645851702118556 35.3992708193603 5.778472339012169 1.9261574463373894 1.9261574463373894 0.0 0.0 0.6966086930688543 0.7174512727293072
165 33.71765434039849 23.480205608215762 42.55922237121884 5.778472339012169 1.9261574463373894 1.9261574463373894 0.0 -0.0 0.8994069955971553 0.43711217813153935
7_B 44.58311629669727 62.50043144032557 24.35777753198907 2.0836878873779336 0.6945626291259793 0.6945626291259793 0.0 -0.0 0.7603958793842515 0.6494598575858641
9_T 48.39299374587558 -0.7616781602869622 54.75240658090448 2.12578117490049 0.7085937249668315 0.7085937249668315 0.0 -0.0 0.7176002965020949 0.6964551776389529
10_B 18.773232204527385 61.20943017326828 13.887590263963746 2.147145630892605 0.7157152102975394 0.7157152102975394 0.0 0.0 0.38534345666417513 0.9227732226317065
12_B 7.496158912858743 61.87258704563129 20.887044144011057 2.190520849869238 0.7301736166230743 0.7301736166230743 0.0 0.0 0.2746680171135514 0.9615391205639581
41_F 46.73580147707536 9.485806044300887 -0.5620596852794719 2.9274722768581474 0.9758240922860529 0.9758240922860529 0.0 0.0 0.5813114541301716 0.8136811373609846
43_T 53.687240000641324 -1.3384758322377053 29.84995276510412 2.9866111397418504 0.9955370465806271 0.9955370465806271 0.0 -0.0 0.8971229945165649 0.4417808650333688
52_B 35.511404490440725 63.510373313267195 22.916682558290972 3.267873104533037 1.0892910348443512 1.0892910348443512 0.0 -0.0 0.8312938914163103 0.5558331279205367
57_B 51.63578041967901 64.01991853570374 47.18451512384251 3.36739465695082 1.122464885650278 1.122464885650278 0.0 0.0 0.6906372933410847 0.7232013060320761
63_F 35.3875370266703 49.61135160632511 -0.8135621054346487 3.469947091865806 1.1566490306219377 1.1566490306219377 0.0 0.0 0.6638694557235675 0.747848477806363
64_T 31.321519802025577 -2.747857895627682 49.71321482769987 3.504820639912323 1.1682735466374325 1.1682735466374325 0.0 0.0 0.5469534661185369 0.8371630103515794
67_LT -0.8683311979282067 0.8205841342495777 15.256536055861885 3.540044672943472 1.1800148909811567 1.1800148909811567 0.0 -0.0 0.7991221049958454 0.6011687461162707
67_LB -0.8683311979282067 61.72058413424958 15.256536055861885 3.540044672943472 1.1800148909811567 1.1800148909811567 0.0 -0.0 0.7991221049958454 0.6011687461162707
67_RB 60.03166880207179 61.72058413424958 15.256536055861885 3.540044672943472 1.1800148909811567 1.1800148909811567 0.0 -0.0 0.7991221049958454 0.6011687461162707
69_T 44.378209037386476 -0.6075021975794002 54.70181357516716 3.5756227133919394 1.1918742377973188 1.1918742377973188 0.0 0.0 0.69974083585519 0.7143967823532522
72_R 61.32412261363663 47.534854075424825 6.7263056200932 3.6478550836326025 1.2159516945441926 1.2159516945441926 0.0 -0.0 0.9180976465577227 0.39635427509384946
77_B 12.718774532853521 64.00653016948232 5.35198012310549 3.7215466445453598 1.2405155481817944 1.2405155481817944 0.0 -0.0 0.724549744492829 0.6892225096116464
79_R 61.41339330950781 26.07239361792846 15.519049974867695 3.7589488101345716 1.252982936711524 1.252982936711524 0.0 0.0 0.4210348644808628 0.9070444547493698
82_FB 18.247280371937293 62.95383532769745 0.30378400543600514 3.8348846131912566 1.2782948710637496 1.2782948710637496 0.0 0.0 0.3480344086077516 0.937481760049257
82_BT 18.247280371937293 2.0538353276974486 61.203784005436006 3.8348846131912566 1.2782948710637496 1.2782948710637496 0.0 0.0 0.3480344086077516 0.937481760049257
82_BB 18.247280371937293 62.95383532769745 61.203784005436006 3.8348846131912566 1.2782948710637496 1.2782948710637496 0.0 0.0 0.3480344086077516 0.937481760049257