ITEM: TIMESTEP
797
ITEM: NUMBER OF ATOMS
290
ITEM: BOX BOUNDS ff ff ff
0 60.9
60.9 0
60.9 0
ITEM: ATOMS id x y z AsphericalShapeX AsphericalShapeY AsphericalShapeZ OrientationX OrientationY OrientationZ OrientationW
1 45.97912849657942 50.52444814571895 23.67589352257484 5.632913648958772 1.8776378829862626 1.8776378829862626 0.0 -0.0 0.7863642711635499 0.6177630881150306
2 3.2342205813309723 16.320896970019056 22.582993539460798 5.689525372301468 1.8965084574337794 1.8965084574337794 0.0 -0.0 0.8896314041555925 0.4566792799549252
3 16.5682140651545 10.488212447910476 54.91093711608199 5.746706052922572 1.915568684307584 1.915568684307584 0.0 0.0 0.631512325711268 0.7753658378305981
4 17.111594735008804 46.74844512296934 42.96147861656231 5.804461408938079 1.9348204696460811 1.9348204696460811 0.0 0.0 0.5765741652112841 0.8170448164029381
5 33.522227990509215 33.83566834109389 20.952758796149297 5.8627972159316135 1.9542657386438886 1.9542657386438886 0.0 -0.0 0.8873914294477543 0.4610167577677315
6 19.656308946031125 1.999155437710248 27.628946171572245 5.921719307532329 1.9739064358441156 1.9739064358441156 0.0 0.0 0.643710445538684 0.7652691437033046
7 19.510902498493657 50.37427446011042 38.63933319947425 5.981233575998529 1.9937445253328199 1.9937445253328199 0.0 -0.0 0.7603958793842515 0.6494598575858641
8 40.105103957773764 29.180368774095825 13.865841583875632 6.041345972806686 2.013781990935621 2.013781990935621 0.0 -0.0 0.7854601334426244 0.6189122545016335
9 48.62727798140147 5.928094929756119 51.25810184870124 6.102062509246751 2.034020836415585 2.034020836415585 0.0 -0.0 0.7176002965020949 0.6964551776389529
10 49.18542039852257 5.607800220342798 14.721913453430341 6.163389257022739 2.0544630856742505 2.0544630856742505 0.0 0.0 0.38534345666417513 0.9227732226317065
11 15.75722156813538 32.847386795334394 60.62772164635823 6.225332348860536 2.0751107829535305 2.0751107829535305 0.0 0.0 0.49983922045674145 0.866118209999765
12 9.175340097518692 10.786694218414942 25.446234308002808 6.28789797912095 2.095965993040377 2.095965993040377 0.0 0.0 0.2746680171135514 0.9615391205639581
13 5.392350544470166 51.18356204397459 10.999418518126152 6.351092404419391 2.1170308014731436 2.1170308014731436 0.0 -0.0 0.7886508549344257 0.614841303924191
14 10.67570767334777 37.7078137445477 20.755167782701367 6.414921944250721 2.138307314750251 2.138307314750251 0.0 -0.0 0.7750680292508737 0.6318777967559605
15 28.644806816163786 46.416137117571516 19.7715718592984 6.479392981622349 2.159797660540847 2.159797660540847 0.0 0.0 0.6340811782098568 0.7732664866913604
16 18.29903233701831 27.105528136439794 49.15751515841566 6.544511963691834 2.1815039878972518 2.1815039878972518 0.0 -0.0 0.7629176367612683 0.6464956918020424
17 18.99624347538978 8.410099994105728 33.29167934641808 6.610285402411215 2.2034284674703835 2.2034284674703835 0.0 0.0 0.6579222258448839 0.7530858813836
18 36.547517430290675 26.737193063326025 17.36391015501534 6.676719875179356 2.225573291726479 2.225573291726479 0.0 0.0 0.506211649243881 0.8624092799650234
19 13.703222532703652 4.0194720057895 33.546365667510045 6.7438220254991235 2.2479406751664004 2.2479406751664004 0.0 0.0 0.6434542777811493 0.7654845474633303
20 27.814953331792353 44.60646978020365 35.57246259000623 6.8115985636412555 2.270532854547138 2.270532854547138 0.0 -0.0 0.7861857262579329 0.6179902942832407
21 45.140319547251714 17.170462605908522 47.65802947024577 6.88005626731609 2.2933520891053893 2.2933520891053893 0.0 0.0 0.6069811502172251 0.7947162281474907
22 13.38886746688465 5.225333466901606 28.138194748015234 6.949201982351128 2.3164006607837084 2.3164006607837084 0.0 -0.0 0.8910647246123514 0.45387625687131333
23 45.86271808475095 3.5248124726177643 47.703016653167296 7.019042623375345 2.3396808744585 2.3396808744585 0.0 -0.0 0.7582829367961579 0.651925599868416
24 22.507799063819203 15.155037525576509 43.526859639551056 7.08958517451115 2.3631950581704326 2.3631950581704326 0.0 0.0 0.5255054740936084 0.8507902189715464
25 12.092141873813985 5.400311165718927 54.723731696882375 7.16083669007267 2.3869455633575427 2.3869455633575427 0.0 0.0 0.6637035342538496 0.7479957343587923
26 2.4474960293875774 53.47054395845387 30.272514587811724 7.232804295270281 2.4109347650900532 2.4109347650900532 0.0 0.0 0.5361151400853296 0.8441448670526212
27 3.5197713629062974 38.44351557138419 28.21506468199953 7.305495186924839 2.435165062308238 2.435165062308238 0.0 -0.0 0.7297620279401082 0.6837012378054764
28 10.694377771697225 27.47771480707683 28.027971694578916 7.378916634186034 2.4596388780619534 2.4596388780619534 0.0 -0.0 0.9828164757017253 0.18458541407500267
29 47.16517534913659 24.158813358761634 27.724678717587512 7.453075979259771 2.4843586597532727 2.4843586597532727 0.0 -0.0 0.8740853421614372 0.4857723897243679
30 20.24084814685747 58.503462090048195 23.187833294575967 7.527980638142321 2.509326879380789 2.509326879380789 0.0 -0.0 0.8433777540022546 0.5373210995802349
31 55.464256368708455 45.15063784466013 32.889019404519914 7.603638101361879 2.534546033787364 2.534546033787364 0.0 0.0 0.6952778540174372 0.7187410560924617
32 52.75355661732864 29.659478111867347 33.8430708415955 7.680055934728245 2.5600186449094293 2.5600186449094293 0.0 0.0 0.6353234605105568 0.7722461398575527
33 27.032063006104615 17.065244742792817 20.889245557058626 7.757241780088047 2.5857472600292883 2.5857472600292883 0.0 0.0 0.6411270229476993 0.7674347792784871
34 18.929619433288703 16.093151922284346 21.81428061985446 7.835203356090035 2.6117344520300843 2.6117344520300843 0.0 -0.0 0.7453722743584635 0.6666484625480594
35 22.76169986147798 37.49640778484301 36.07871829259656 7.913948458957148 2.6379828196524446 2.6379828196524446 0.0 -0.0 0.7109313362059317 0.7032614273514853
36 35.882582107543605 2.9007896067007217 58.16457634459151 7.993484963265167 2.6644949877551283 2.6644949877551283 0.0 -0.0 0.739632735620696 0.6730107104632479
37 24.528776260133945 48.19255507286623 26.891997981386833 8.073820822730982 2.6912736075770107 2.6912736075770107 0.0 0.0 0.5163603530767541 0.8563714064414165
38 14.848915744705037 8.14109899391394 18.450577484643194 8.154964071007017 2.71832135700228 2.71832135700228 0.0 0.0 0.5145463711011363 0.8574625542766586
39 9.237205799101861 40.775919835537614 26.84235620432864 8.236922822485932 2.7456409408286437 2.7456409408286437 0.0 0.0 0.5880831456971182 0.8088004783300898
40 54.11258837462825 8.197852560473716 12.144232122061434 8.319705273111401 2.773235091037148 2.773235091037148 0.0 -0.0 0.8608342640850161 0.5088854191045453
41 6.983913115603444 19.539220997769885 31.601883331162593 8.403319701197129 2.801106567065726 2.801106567065726 0.0 0.0 0.5813114541301716 0.8136811373609846
42 12.923729492514253 52.023768090175025 38.300184723482516 8.487774468255704 2.829258156085283 2.829258156085283 0.0 0.0 0.6858728758951139 0.7277213739552836
43 59.88974742670096 41.2388493619128 40.43458436087574 8.573078019834636 2.85769267327816 2.85769267327816 0.0 -0.0 0.8971229945165649 0.4417808650333688
44 43.40387371504031 18.815660833614285 22.644812308110577 8.659238886359482 2.8864129621197936 2.8864129621197936 0.0 -0.0 0.7662793896249596 0.6425075073771507
45 50.391195310519 54.51915424066193 39.150757511531 8.746265683989211 2.9154218946630257 2.9154218946630257 0.0 -0.0 0.8021859139948743 0.5970743332184094
46 19.230492767509226 56.189376673631905 13.572520124295622 8.83416711547564 2.944722371825256 2.944722371825256 0.0 0.0 0.6689296931602822 0.7433256793683982
47 53.40276050810242 39.05700388749559 14.727460945106657 8.922951971035788 2.9743173236785716 2.9743173236785716 0.0 -0.0 0.8121614142020023 0.5834328044268712
48 1.0096680205150301 46.70434750737498 14.3617218113158 9.012629129228687 3.004209709742897 3.004209709742897 0.0 0.0 0.43861391052531945 0.8986756019241242
49 26.539604441317465 59.197252482182385 7.6717227904229235 9.103207557845094 3.034402519281645 3.034402519281645 0.0 -0.0 0.7611420715427216 0.6485851886434459
50 25.260385233130293 19.783604245419866 60.086419923301 9.194696314803227 3.064898771601049 3.064898771601049 0.0 0.0 0.5689873473401131 0.8223462765568174
51 44.97493005067051 22.32586775844738 39.54042703862673 9.287104549055186 3.0957015163517774 3.0957015163517774 0.0 -0.0 0.9816329176571261 0.1907794930592849
52 36.99395446340782 12.571715016107607 18.732165931388018 9.380441501501508 3.126813833833799 3.126813833833799 0.0 -0.0 0.8312938914163103 0.5558331279205367
53 4.947502934761372 52.32509193908046 0.05273780584338539 9.47471650591469 3.1582388353049398 3.1582388353049398 0.0 0.0 0.4937832216878833 0.8695850332081013
54 41.24123217235001 52.875478877800454 41.39169742837155 9.569938989874275 3.1899796632913837 3.1899796632913837 0.0 -0.0 0.7425013715714329 0.6698445440656666
55 21.85356504510179 39.004346640599366 16.558824729434335 9.569938989874275 3.1899796632913837 3.1899796632913837 0.0 -0.0 0.899222239431846 0.4374921303419936
56 43.30788793217739 3.741347179531292 15.675186462756175 9.666118475707746 3.222039491902615 3.222039491902615 0.0 0.0 0.591041689671776 0.8066410112744902
57 50.320287132384976 60.743305274627716 53.20139907780205 9.666118475707746 3.222039491902615 3.222039491902615 0.0 0.0 0.6906372933410847 0.7232013060320761
58 23.984592980493293 34.83941309083582 30.117466998991688 9.763264581444057 3.2544215271479726 3.2544215271479726 0.0 -0.0 0.9778925487455288 0.20910801779935065
59 30.30462117587043 0.5362927167768405 22.860767451854425 9.763264581444057 3.2544215271479726 3.2544215271479726 0.0 -0.0 0.8334397726994561 0.5526103014626843
60 49.95593823147557 18.77478604053387 53.12108733357151 9.861387021774652 3.2871290072581476 3.2871290072581476 0.0 -0.0 0.8251393648538317 0.5649292243888745
61 2.6542580468141015 9.676830099720062 42.39065516681199 9.861387021774652 3.2871290072581476 3.2871290072581476 0.0 -0.0 0.8342848482439009 0.5513336485202505
62 17.276652568074415 8.719958162793336 38.60834166156401 9.960495609024923 3.320165203008286 3.320165203008286 0.0 0.0 0.6993489688984815 0.7147803996337831
63 31.977129406548848 8.966436030205701 47.20925789974532 9.960495609024923 3.320165203008286 3.320165203008286 0.0 0.0 0.6638694557235675 0.747848477806363
64 45.29037869640221 28.028832454701373 45.26051441605097 10.060600254136732 3.3535334180456173 3.3535334180456173 0.0 0.0 0.5469534661185369 0.8371630103515794
65 5.317848882788401 25.13960199690207 4.74617749210829 10.060600254136732 3.3535334180456173 3.3535334180456173 0.0 0.0 0.534266604389083 0.8453160328744268
66 21.979188094949354 55.102616706326025 32.590390826035744 10.16171096765782 3.387236989219294 3.387236989219294 0.0 0.0 0.49259387534365895 0.8702593142126752
67 52.228460015820936 15.003300486931215 6.547327952695929 10.16171096765782 3.387236989219294 3.387236989219294 0.0 -0.0 0.7991221049958454 0.6011687461162707
68 34.7546332873587 18.92662551363018 24.025088844791 10.263837860743921 3.421279286914651 3.421279286914651 0.0 -0.0 0.8113628171424923 0.5845428803420658
69 32.73655582933036 8.1158894137459 53.19473593752358 10.263837860743921 3.421279286914651 3.421279286914651 0.0 0.0 0.69974083585519 0.7143967823532522
70 6.700064505603535 59.90672325860729 15.12455750664837 10.366991146169015 3.455663715389755 3.455663715389755 0.0 -0.0 0.9226100212719841 0.3857340387475665
71 13.33420537861892 60.7898328820769 23.48844100617906 10.366991146169015 3.455663715389755 3.455663715389755 0.0 -0.0 0.8908476943010929 0.4543020862360491
72 11.234570378705959 43.27399458950115 10.530204794263877 10.471181139348273 3.4903937131160996 3.4903937131160996 0.0 -0.0 0.9180976465577227 0.39635427509384946
73 37.529879450116944 31.25363874245267 29.162527999689694 10.471181139348273 3.4903937131160996 3.4903937131160996 0.0 0.0 0.6852526383261238 0.7283054453092375
74 46.521711921799195 24.27528948884166 16.60635875453094 10.576418259367303 3.525472753122438 3.525472753122438 0.0 0.0 0.6622208999947843 0.7493086677799063
75 49.432707838946904 39.98472066011145 43.50109750062061 10.576418259367303 3.525472753122438 3.525472753122438 0.0 0.0 0.6669694181073614 0.7450850926636016
76 1.7756876991958745 13.033732225852564 28.569651230399636 10.682713030025843 3.560904343342032 3.560904343342032 0.0 0.0 0.4849872773235938 0.8745212066235144
77 13.556347070389231 52.419004719814474 17.062794925051367 10.682713030025843 3.560904343342032 3.560904343342032 0.0 -0.0 0.724549744492829 0.6892225096116464
78 4.766742256151252 10.003216312060893 15.851762078805544 10.790076080890069 3.596692026963295 3.596692026963295 0.0 0.0 0.646327957303847 0.7630597431442944
79 58.14152713248971 28.144595182377124 28.641136066303126 10.790076080890069 3.596692026963295 3.596692026963295 0.0 0.0 0.4210348644808628 0.9070444547493698
80 2.6978259870134655 59.631163077682494 24.8941029038411 10.898518148353741 3.6328393827846086 3.6328393827846086 0.0 0.0 0.5786941501693628 0.8155446527074768
81 57.905872441152496 50.02180591347477 25.446761571760817 10.898518148353741 3.6328393827846086 3.6328393827846086 0.0 0.0 0.683142879342022 0.730284743373632
82 7.7474877125398 54.37830566131451 5.538620887644188 11.008050076714454 3.6693500255714717 3.6693500255714717 0.0 0.0 0.3480344086077516 0.937481760049257
83 11.213105861646072 34.78636201994698 4.114602589547968 11.008050076714454 3.6693500255714717 3.6693500255714717 0.0 -0.0 0.8280938516825816 0.560589486884571
84 38.08605667058944 14.210237776879964 4.660178845301701 11.118682819256405 3.7062276064188113 3.7062276064188113 0.0 -0.0 0.8521868438699086 0.5232375972109076
85 15.724022475678128 46.5898368411343 24.175494706779375 11.118682819256405 3.7062276064188113 3.7062276064188113 0.0 0.0 0.2683204071818837 0.9633297250109892
86 5.036213624673651 56.518860214048786 54.049666157306056 11.23042743934568 3.743475813115193 3.743475813115193 0.0 0.0 0.5717525694490604 0.8204261083902665
87 5.132599763887891 60.784444078755605 42.23589173857671 11.23042743934568 3.743475813115193 3.743475813115193 0.0 -0.0 0.7407334016199733 0.6717990977401677
88 33.59958623848948 42.74899762094115 53.66593239992251 11.343295111537756 3.7810983705125767 3.7810983705125767 0.0 0.0 0.6524446383875427 0.7578363898885753
89 38.26708629469525 14.460876049429272 43.60335759475455 11.343295111537756 3.7810983705125767 3.7810983705125767 0.0 0.0 0.3815125934194192 0.9243636411404275
90 19.368222542204315 12.323466774124146 49.112130450080834 11.457297122693976 3.8190990408979615 3.8190990408979615 0.0 -0.0 0.7664413141092511 0.642314340511314
91 26.20430520668975 2.4601540789876446 27.441894790318674 11.457297122693976 3.8190990408979615 3.8190990408979615 0.0 -0.0 0.7164030651197486 0.6976866404676452
92 53.57677882527009 13.158884290186625 35.407489158381985 11.57244487310997 3.8574816243699144 3.8574816243699144 0.0 0.0 0.3159382626609752 0.9487797500931208
93 15.916826110955979 18.94956184684734 30.535293387339294 11.57244487310997 3.8574816243699144 3.8574816243699144 0.0 -0.0 0.807675111463051 0.5896277760783901
94 50.92168601248008 7.960254110495526 43.54889617775067 11.688749877656928 3.8962499592189315 3.8962499592189315 0.0 0.0 0.5856043209472178 0.8105970511221638
95 40.16733106404754 0.1519255939219235 52.51971850939919 11.688749877656928 3.8962499592189315 3.8962499592189315 0.0 -0.0 0.8283891439806925 0.5601530381377355
96 44.045970118795026 7.778345928943213 37.263790643762746 11.806223766932508 3.935407922310847 3.935407922310847 0.0 0.0 0.6380161188650698 0.7700230074928626
97 25.219736207250328 56.42927926227796 17.36175403582339 11.806223766932508 3.935407922310847 3.935407922310847 0.0 0.0 0.5652655734899162 0.8249089837231233
98 14.703423237750524 22.003367116934154 37.648193020910924 11.924878288423018 3.9749594294743 3.9749594294743 0.0 -0.0 0.9884337224668884 0.15165347437579585
99 51.589097224179895 36.227218764310805 7.794991387483201 11.924878288423018 3.9749594294743 3.9749594294743 0.0 0.0 0.644584962479319 0.7645326848117973
100 26.213990230472437 31.008233094257 54.02373153310829 12.044725307680277 4.0149084358934655 4.0149084358934655 0.0 -0.0 0.7665764345255346 0.6421530736748979
101 17.318379494925207 14.935705118798847 60.825454192667216 12.044725307680277 4.0149084358934655 4.0149084358934655 0.0 -0.0 0.7486465484609144 0.6629693397718779
102 42.29669139415916 37.87924306745502 8.0191563363142 12.165776809505296 4.0552589365018115 4.0552589365018115 0.0 -0.0 0.764238184631255 0.644934102952793
103 24.202982699635033 40.106947496269164 0.025780857042528568 12.165776809505296 4.0552589365018115 4.0552589365018115 0.0 -0.0 0.7262700822056904 0.6874094614514261
104 52.13784418980336 55.33119314547234 47.705373060552645 12.288044899149618 4.096014966383123 4.096014966383123 0.0 0.0 0.6864264585310771 0.7271992278794606
105 18.93234647487489 40.67638313839464 9.703536464264271 12.288044899149618 4.096014966383123 4.096014966383123 0.0 -0.0 0.8498704758576332 0.5269916263713497
106 11.773241584664687 14.9846026453066 45.74038928432173 12.41154180352348 4.1371806011745775 4.1371806011745775 0.0 -0.0 0.793590538753224 0.6084521811953406
107 40.42990131295554 43.803937613292526 15.853803441762363 12.41154180352348 4.1371806011745775 4.1371806011745775 0.0 -0.0 0.8299364941277125 0.5578578812878792
108 51.151840921377975 37.59399228336653 55.58825193873302 12.536279872421094 4.1787599574737095 4.1787599574737095 0.0 -0.0 0.7596155095013813 0.650372414640225
109 60.153662707707625 33.22714895459865 4.265673594747465 12.536279872421094 4.1787599574737095 4.1787599574737095 0.0 -0.0 0.746179639226726 0.6657446552571586
110 40.69124880683787 16.281500834905906 51.77199784301888 12.662271579752776 4.2207571932509405 4.2207571932509405 0.0 -0.0 0.7434755474029917 0.6687631198068729
111 28.210273439642 35.34339014004611 24.98919473768921 12.662271579752776 4.2207571932509405 4.2207571932509405 0.0 -0.0 0.7635489887521677 0.6457499065238353
112 56.017813707979386 59.27739851902554 17.319800609623726 12.789529524794483 4.263176508264896 4.263176508264896 0.0 -0.0 0.925703395166632 0.3782502137170186
113 19.105754582251617 1.3422241973905826 5.159570618616825 12.789529524794483 4.263176508264896 4.263176508264896 0.0 -0.0 0.7476030998596368 0.6641457709571461
114 9.162671412266137 60.822780168340344 33.78428078872325 12.918066433446896 4.30602214448221 4.30602214448221 0.0 -0.0 0.7095009508808979 0.7047044775642494
115 25.19963377792739 6.7099797297719395 52.44136817171079 12.918066433446896 4.30602214448221 4.30602214448221 0.0 0.0 0.692332939305712 0.7215782016887105
116 12.353990982201067 28.245054692033587 54.28766809021908 13.047895159507108 4.349298386502434 4.349298386502434 0.0 0.0 0.4838188577050026 0.8751681626573412
117 41.914535055442705 37.55821029835171 24.07573951157092 13.047895159507108 4.349298386502434 4.349298386502434 0.0 0.0 0.4072390243389004 0.9133216175343166
118 37.31295014876751 13.436066525501635 60.523788622249185 13.179028685956872 4.393009561985626 4.393009561985626 0.0 -0.0 0.9854258972554679 0.17010526452245991
119 31.77179933124278 27.758627063589344 60.028169480985724 13.179028685956872 4.393009561985626 4.393009561985626 0.0 0.0 0.693566054094668 0.720393037589587
120 25.31105877883783 21.506454557954065 27.46015006120841 13.311480126258058 4.437160042085927 4.437160042085927 0.0 -0.0 0.8546373086497397 0.5192254526349123
121 59.86882474426108 37.38724214169831 54.981280988077614 13.311480126258058 4.437160042085927 4.437160042085927 0.0 -0.0 0.738138054050796 0.6746496966293722
122 57.28148690043857 17.213958830101376 60.68438231278368 13.445262725664438 4.481754241888094 4.481754241888094 0.0 0.0 0.30497028615780525 0.9523618663936657
123 43.748306389544325 40.75751818402718 51.466746737264636 13.445262725664438 4.481754241888094 4.481754241888094 0.0 -0.0 0.8240326158671573 0.5665423620411186
124 4.531424040097826 30.54890937609991 0.10216208055745568 13.580389862547927 4.526796620849302 4.526796620849302 0.0 -0.0 0.7351480847541838 0.6779065521753388
125 59.26837857982413 60.37795523134286 48.701175700324264 13.580389862547927 4.526796620849302 4.526796620849302 0.0 0.0 0.6354145425399089 0.7721711980699606
126 33.798711288597055 59.23309031857139 43.35474065634346 13.716875049734659 4.572291683244892 4.572291683244892 0.0 -0.0 0.9631928649301144 0.2688112812880415
127 60.86070104314141 24.617945555204038 36.69305446239431 13.716875049734659 4.572291683244892 4.572291683244892 0.0 0.0 0.6645731125154195 0.7472232451694524
128 4.954880578847553 42.90348622395705 46.77119021789328 13.85473193585692 4.618243978618972 4.618243978618972 0.0 -0.0 0.837305869343264 0.5467347447925007
129 33.191572799765545 52.84402027171829 11.37757887442549 13.85473193585692 4.618243978618972 4.618243978618972 0.0 0.0 0.6718759690179156 0.7406636768846148
130 27.432367063449806 30.50188990582108 15.710485025131126 13.993974306718654 4.664658102239619 4.664658102239619 0.0 -0.0 0.8172568989423515 0.5762735124323614
131 6.911546196871313 34.275505527578346 34.945413118816504 13.993974306718654 4.664658102239619 4.664658102239619 0.0 0.0 0.5650588956672867 0.8250505708302167
132 23.151528762444087 55.14154251152755 51.764605451129476 14.13461608667274 4.711538695557655 4.711538695557655 0.0 0.0 0.5632303093681869 0.8262999568008076
133 15.80272936100337 42.29582229117802 31.813269487941707 14.13461608667274 4.711538695557655 4.711538695557655 0.0 0.0 0.7047758212396541 0.7094300823872436
134 55.38584581493543 22.2658302897121 44.41584924604803 14.27667134001431 4.758890446671427 4.758890446671427 0.0 -0.0 0.7457546235329385 0.6662207152882933
135 40.02780456326785 35.70377444385227 60.557460143985615 14.27667134001431 4.758890446671427 4.758890446671427 0.0 0.0 0.5807371118896761 0.8140911539097067
136 18.416033568356326 54.761291767021724 60.499545465468145 14.420154272387066 4.806718090795792 4.806718090795792 0.0 -0.0 0.7765636880913803 0.6300387593933514
137 60.87345871028325 36.69030027589493 20.782033503473706 14.420154272387066 4.806718090795792 4.806718090795792 0.0 -0.0 0.9207785641385271 0.39008567754147583
138 54.907524351812754 12.178963000546071 23.248398193989317 14.56507923220408 4.855026410734661 4.855026410734661 0.0 0.0 0.5933031767685688 0.8049790931672228
139 4.857311669387532 4.596940757117777 60.87455166784375 14.56507923220408 4.855026410734661 4.855026410734661 0.0 0.0 0.36293328461656904 0.9318151270061183
140 59.93698217907005 60.393144537421975 36.83768545289826 14.71146071208224 4.90382023736074 4.90382023736074 0.0 0.0 0.5657838974393875 0.8245535649054563
141 16.189163478873542 40.943519102354195 52.53363527000581 14.71146071208224 4.90382023736074 4.90382023736074 0.0 0.0 0.5898626798291705 0.8075035720941112
142 5.3392316843462915 5.910601413595271 7.2500881964746045 14.859313350290517 4.953104450096858 4.953104450096858 0.0 0.0 0.494526605223718 0.8691624915548904
143 29.5189893713656 60.663049581113405 1.0171270119593192 14.859313350290517 4.953104450096858 4.953104450096858 0.0 0.0 0.6621201748514545 0.7493976741721844
144 9.544291346033644 31.544494969128557 44.39598201443502 15.00865193221691 5.002883977405754 5.002883977405754 0.0 -0.0 0.8358120424685423 0.5490156916378287
145 12.013725862220507 21.535974903944343 11.087750861842 15.00865193221691 5.002883977405754 5.002883977405754 0.0 -0.0 0.7380766977143534 0.6747168208152773
146 15.18929384363724 0.20912146858512934 44.22774529168347 15.159491391843737 5.053163797281357 5.053163797281357 0.0 0.0 0.5600689403365469 0.8284460043179022
147 38.133517828077444 9.339434591522672 30.618994121202547 15.159491391843737 5.053163797281357 5.053163797281357 0.0 -0.0 0.8053653384335279 0.5927787712543771
148 60.80703171266822 12.522781830978802 51.418566810511884 15.311846813243111 5.103948937747682 5.103948937747682 0.0 -0.0 0.9475491048281723 0.31961022189430877
149 39.37285612356299 60.36119539038912 23.60705006911999 15.311846813243111 5.103948937747682 5.103948937747682 0.0 -0.0 0.8855269061838191 0.46458809543994295
150 12.340992355882076 23.268521964832455 21.293581869520782 15.465733432083434 5.155244477361147 5.155244477361147 0.0 -0.0 0.8997163709941051 0.43647502994466686
151 31.871382935470972 23.70200461674535 35.8134230666795 15.465733432083434 5.155244477361147 5.155244477361147 0.0 0.0 0.6949034215940625 0.7191030765174521
152 53.92890457430215 58.171296548872526 60.82487947275941 15.621166637155186 5.207055545718373 5.207055545718373 0.0 0.0 0.6496096252583186 0.7602679361723385
153 31.500791071383333 31.950266589185127 4.974626251792076 15.621166637155186 5.207055545718373 5.207055545718373 0.0 0.0 0.6980264017745981 0.7160720232110785
154 38.54230896774749 3.445810924213202 9.839563237780553 15.778161971907986 5.259387323969349 5.259387323969349 0.0 -0.0 0.9126309719920443 0.4087844284716046
155 20.482316146386488 20.67292744285771 5.785982117938103 15.778161971907986 5.259387323969349 5.259387323969349 0.0 0.0 0.34897032679986184 0.9371337743423815
156 34.65158799719477 38.53724558850581 44.71167605066781 15.936735136006998 5.312245045335578 5.312245045335578 0.0 0.0 0.6995675014656925 0.7145665195718649
157 24.745521958204957 29.99997597358124 44.58504028859231 15.936735136006998 5.312245045335578 5.312245045335578 0.0 0.0 0.63565327495599 0.7719746848425306
158 50.55458138102151 60.603889484750425 29.600724301020115 16.09690198690005 5.36563399563321 5.36563399563321 0.0 -0.0 0.7426985308561326 0.6696259345814963
159 21.02077361349865 10.487476152159886 13.740951400076975 16.09690198690005 5.36563399563321 5.36563399563321 0.0 0.0 0.4891044501540252 0.8722252213961303
160 43.7677816340013 55.174273001102854 0.4824263717111049 16.258678541405768 5.419559513801959 5.419559513801959 0.0 0.0 0.6466947184788655 0.7627489371290798
161 26.457355404994363 6.092279219304745 36.739153421359504 16.258678541405768 5.419559513801959 5.419559513801959 0.0 0.0 0.6377575578887067 0.7702371695496348
162 55.250301572689146 59.17753195925273 7.566209338498612 16.422080977314277 5.474026992438052 5.474026992438052 0.0 0.0 0.6701572236966805 0.7422191694689361
163 36.07086592316474 53.897128683003544 32.579126154069414 16.422080977314277 5.474026992438052 5.474026992438052 0.0 -0.0 0.7797338016261434 0.6261111711203069
164 44.254210364961764 37.06974825130701 35.11094537331846 16.5871256350062 5.5290418783353825 5.5290418783353825 0.0 0.0 0.6966086930688543 0.7174512727293072
165 0.061872780352906886 25.72541488767064 13.855701792615704 16.5871256350062 5.5290418783353825 5.5290418783353825 0.0 -0.0 0.8994069955971553 0.43711217813153935
2_R 64.13422058133096 16.320896970019056 22.582993539460798 5.689525372301468 1.8965084574337794 1.8965084574337794 0.0 -0.0 0.8896314041555925 0.4566792799549252
6_B 19.656308946031125 62.89915543771025 27.628946171572245 5.921719307532329 1.9739064358441156 1.9739064358441156 0.0 0.0 0.643710445538684 0.7652691437033046
9_B 48.62727798140147 66.82809492975612 51.25810184870124 6.102062509246751 2.034020836415585 2.034020836415585 0.0 -0.0 0.7176002965020949 0.6964551776389529
11_F 15.75722156813538 32.847386795334394 -0.27227835364176656 6.225332348860536 2.0751107829535305 2.0751107829535305 0.0 0.0 0.49983922045674145 0.866118209999765
19_B 13.703222532703652 64.9194720057895 33.546365667510045 6.7438220254991235 2.2479406751664004 2.2479406751664004 0.0 0.0 0.6434542777811493 0.7654845474633303
22_B 13.38886746688465 66.12533346690161 28.138194748015234 6.949201982351128 2.3164006607837084 2.3164006607837084 0.0 -0.0 0.8910647246123514 0.45387625687131333
23_B 45.86271808475095 64.42481247261776 47.703016653167296 7.019042623375345 2.3396808744585 2.3396808744585 0.0 -0.0 0.7582829367961579 0.651925599868416
25_B 12.092141873813985 66.30031116571892 54.723731696882375 7.16083669007267 2.3869455633575427 2.3869455633575427 0.0 0.0 0.6637035342538496 0.7479957343587923
26_R 63.34749602938758 53.47054395845387 30.272514587811724 7.232804295270281 2.4109347650900532 2.4109347650900532 0.0 0.0 0.5361151400853296 0.8441448670526212
30_T 20.24084814685747 -2.396537909951803 23.187833294575967 7.527980638142321 2.509326879380789 2.509326879380789 0.0 -0.0 0.8433777540022546 0.5373210995802349
36_B 35.882582107543605 63.80078960670072 58.16457634459151 7.993484963265167 2.6644949877551283 2.6644949877551283 0.0 -0.0 0.739632735620696 0.6730107104632479
43_L -1.0102525732990415 41.2388493619128 40.43458436087574 8.573078019834636 2.85769267327816 2.85769267327816 0.0 -0.0 0.8971229945165649 0.4417808650333688
45_T 50.391195310519 -6.380845759338065 39.150757511531 8.746265683989211 2.9154218946630257 2.9154218946630257 0.0 -0.0 0.8021859139948743 0.5970743332184094
46_T 19.230492767509226 -4.7106233263680934 13.572520124295622 8.83416711547564 2.944722371825256 2.944722371825256 0.0 0.0 0.6689296931602822 0.7433256793683982
48_R 61.90966802051503 46.70434750737498 14.3617218113158 9.012629129228687 3.004209709742897 3.004209709742897 0.0 0.0 0.43861391052531945 0.8986756019241242
49_T 26.539604441317465 -1.7027475178176132 7.6717227904229235 9.103207557845094 3.034402519281645 3.034402519281645 0.0 -0.0 0.7611420715427216 0.6485851886434459
50_F 25.260385233130293 19.783604245419866 -0.8135800766989973 9.194696314803227 3.064898771601049 3.064898771601049 0.0 0.0 0.5689873473401131 0.8223462765568174
53_FR 65.84750293476137 52.32509193908046 0.05273780584338539 9.47471650591469 3.1582388353049398 3.1582388353049398 0.0 0.0 0.4937832216878833 0.8695850332081013
53_BL 4.947502934761372 52.32509193908046 60.952737805843384 9.47471650591469 3.1582388353049398 3.1582388353049398 0.0 0.0 0.4937832216878833 0.8695850332081013
53_BR 65.84750293476137 52.32509193908046 60.952737805843384 9.47471650591469 3.1582388353049398 3.1582388353049398 0.0 0.0 0.4937832216878833 0.8695850332081013