ITEM: TIMESTEP
532
ITEM: NUMBER OF ATOMS
252
ITEM: BOX BOUNDS ff ff ff
0 60.9
60.9 0
60.9 0
ITEM: ATOMS id x y z AsphericalShapeX AsphericalShapeY AsphericalShapeZ OrientationX OrientationY OrientationZ OrientationW
1 48.34976762835892 39.34955685313378 22.976551203141575 3.7623345550062814 1.254111518335432 1.254111518335432 0.0 -0.0 0.7863642711635499 0.6177630881150306
2 8.575488181741516 18.75568878619223 22.710993651935258 3.8001466459106257 1.2667155486368515 1.2667155486368515 0.0 -0.0 0.8896314041555925 0.4566792799549252
3 14.13004047372198 17.957015125660053 59.62512776728695 3.838338754646299 1.2794462515487874 1.2794462515487874 0.0 0.0 0.631512325711268 0.7753658378305981
4 18.650628391156935 46.65833087232957 48.215242840794765 3.876914700456205 1.2923049001520668 1.2923049001520668 0.0 0.0 0.5765741652112841 0.8170448164029381
5 43.46151656561762 21.781841322423713 18.432471525103775 3.9158783409668536 1.3052927803222822 1.3052927803222822 0.0 -0.0 0.8873914294477543 0.4610167577677315
6 27.10834810873414 12.016108928515045 20.61539653608736 3.955233572574836 1.3184111908582847 1.3184111908582847 0.0 0.0 0.643710445538684 0.7652691437033046
7 26.008155291497673 58.81718425192347 34.13653932072714 3.9949843308361106 1.331661443612033 1.331661443612033 0.0 -0.0 0.7603958793842515 0.6494598575858641
8 45.497979464643805 32.40488007362639 16.960507842190577 4.035134590859618 1.3450448636198928 1.3450448636198928 0.0 -0.0 0.7854601334426244 0.6189122545016335
9 51.29395430144383 2.3694175430532094 52.542607199529705 4.075688367704906 1.3585627892349703 1.3585627892349703 0.0 -0.0 0.7176002965020949 0.6964551776389529
10 47.10268799990005 14.01373353950434 10.957759442196034 4.116649716783344 1.3722165722611188 1.3722165722611188 0.0 0.0 0.38534345666417513 0.9227732226317065
11 26.546370152947667 33.36125075202897 56.93157983790308 4.158022734263992 1.3860075780880023 1.3860075780880023 0.0 0.0 0.49983922045674145 0.866118209999765
12 5.560095871013714 13.523129698261876 25.03710863599209 4.199811557483058 1.3999371858277074 1.3999371858277074 0.0 0.0 0.2746680171135514 0.9615391205639581
13 7.057913887525504 50.04191910612672 17.23878814911088 4.242020365357869 1.4140067884526069 1.4140067884526069 0.0 -0.0 0.7886508549344257 0.614841303924191
14 14.463592531165226 28.230971486992697 25.429858264114532 4.284653378804123 1.4282177929346873 1.4282177929346873 0.0 -0.0 0.7750680292508737 0.6318777967559605
15 25.430402866824284 39.50582152886558 20.922641839122896 4.327714861158801 1.4425716203862924 1.4425716203862924 0.0 0.0 0.6340811782098568 0.7732664866913604
16 12.921197433405803 30.32328345272152 54.47963497769518 4.371209118606182 1.4570697062020392 1.4570697062020392 0.0 -0.0 0.7629176367612683 0.6464956918020424
17 21.42256887250546 23.700979619683757 36.15579750184283 4.415140500607978 1.4717135002026414 1.4717135002026414 0.0 0.0 0.6579222258448839 0.7530858813836
18 37.286898446334035 34.86988293918819 16.74238771564167 4.459513400339151 1.4865044667797067 1.4865044667797067 0.0 0.0 0.506211649243881 0.8624092799650234
19 24.551992768196037 13.661921343884815 39.07171246732545 4.504332255126661 1.5014440850422068 1.5014440850422068 0.0 0.0 0.6434542777811493 0.7654845474633303
20 30.15425422476122 49.588624854763374 36.00687643280761 4.549601546893275 1.5165338489644389 1.5165338489644389 0.0 -0.0 0.7861857262579329 0.6179902942832407
21 45.08146447755768 20.315067316107168 44.71794591834938 4.595325802605925 1.5317752675352918 1.5317752675352918 0.0 0.0 0.6069811502172251 0.7947162281474907
22 18.418820869750892 3.1558757052793505 30.01649864598871 4.641509594728264 1.5471698649094157 1.5471698649094157 0.0 -0.0 0.8910647246123514 0.45387625687131333
23 41.5627238952064 53.8404309579935 44.669209789995215 4.688157541678082 1.5627191805593792 1.5627191805593792 0.0 -0.0 0.7582829367961579 0.651925599868416
24 29.329615547636077 60.40462168193326 48.29503471590422 4.735274308288841 1.578424769429616 1.578424769429616 0.0 0.0 0.5255054740936084 0.8507902189715464
25 17.02425462517096 60.739389087093535 47.860890609164564 4.782864606276592 1.5942882020921743 1.5942882020921743 0.0 0.0 0.6637035342538496 0.7479957343587923
26 2.5333596869217714 51.05672034016634 29.385233804857087 4.830933194710552 1.6103110649035268 1.6103110649035268 0.0 0.0 0.5361151400853296 0.8441448670526212
27 60.81648800609237 27.739374127672136 28.010135717549797 4.87948488048985 1.626494960163281 1.626494960163281 0.0 -0.0 0.7297620279401082 0.6837012378054764
28 19.672762483846082 32.58310963142279 30.927944888015112 4.928524518823453 1.6428415062744655 1.6428415062744655 0.0 -0.0 0.9828164757017253 0.18458541407500267
29 46.18133429301445 33.98545149046529 29.44317125288177 4.978057013716062 1.6593523379053696 1.6593523379053696 0.0 -0.0 0.8740853421614372 0.4857723897243679
30 18.372745881313946 58.4267617528421 31.29530044020869 5.028087318458417 1.6760291061528212 1.6760291061528212 0.0 -0.0 0.8433777540022546 0.5373210995802349
31 54.32129219054248 52.918272497243855 37.248156888099466 5.07862043612267 1.692873478707589 1.692873478707589 0.0 0.0 0.6952778540174372 0.7187410560924617
32 57.57334835626717 32.72765454289304 35.283423126206266 5.129661420062804 1.709887140020949 1.709887140020949 0.0 0.0 0.6353234605105568 0.7722461398575527
33 25.317172984654622 32.273065678856284 25.139672311046755 5.181215374419661 1.727071791473199 1.727071791473199 0.0 0.0 0.6411270229476993 0.7674347792784871
34 23.926952927228545 16.16221486038168 19.68852017242171 5.233287454631577 1.7444291515438923 1.7444291515438923 0.0 -0.0 0.7453722743584635 0.6666484625480594
35 23.78754421833912 51.57207035308778 42.41971045830243 5.285882867950123 1.761960955983397 1.761960955983397 0.0 -0.0 0.7109313362059317 0.7032614273514853
36 37.01562885430146 2.4437667113216803 60.847431522457725 5.339006873960332 1.779668957986811 1.779668957986811 0.0 -0.0 0.739632735620696 0.6730107104632479
37 19.63229363871898 0.47735606025497784 15.197104607467558 5.392664785107241 1.7975549283690953 1.7975549283690953 0.0 0.0 0.5163603530767541 0.8563714064414165
38 17.87361523213124 6.478378793498139 21.475319541932272 5.446861967226455 1.815620655742127 1.815620655742127 0.0 0.0 0.5145463711011363 0.8574625542766586
39 8.983476336545673 32.006008413494584 20.85424323067131 5.501603840081455 1.8338679466938186 1.8338679466938186 0.0 0.0 0.5880831456971182 0.8088004783300898
40 0.3563627208115172 23.726756348190303 15.773944870275585 5.556895877905239 1.8522986259683885 1.8522986259683885 0.0 -0.0 0.8608342640850161 0.5088854191045453
41 19.173785424847285 9.152840004356554 34.386889335692295 5.612743609947455 1.8709145366491373 1.8709145366491373 0.0 0.0 0.5813114541301716 0.8136811373609846
42 13.786915486830404 10.768263005846753 38.611262546229746 5.669152621027961 1.8897175403426767 1.8897175403426767 0.0 0.0 0.6858728758951139 0.7277213739552836
43 60.086176329523454 42.569241937747485 38.30887804099774 5.726128552095022 1.9087095173649942 1.9087095173649942 0.0 -0.0 0.8971229945165649 0.4417808650333688
44 49.00034572462423 12.472581758351389 27.82806616050442 5.7836771007889825 1.9278923669296448 1.9278923669296448 0.0 -0.0 0.7662793896249596 0.6425075073771507
45 37.8277944640114 39.01963746197466 40.322960787951736 5.841804022012834 1.9472680073375854 1.9472680073375854 0.0 -0.0 0.8021859139948743 0.5970743332184094
46 15.093337336322824 37.67872039750785 18.725709693082656 5.90051512850692 1.9668383761689991 1.9668383761689991 0.0 0.0 0.6689296931602822 0.7433256793683982
47 46.58455829128699 20.329955942418795 15.99051735810742 5.959816291431123 1.986605430477041 1.986605430477041 0.0 -0.0 0.8121614142020023 0.5834328044268712
48 58.230060282291404 47.168587634813655 17.326800296584207 6.019713440950988 2.0065711469836636 2.0065711469836636 0.0 0.0 0.43861391052531945 0.8986756019241242
49 23.71378504267094 5.776092534146115 6.7041157278893655 6.080212566831316 2.02673752227712 2.02673752227712 0.0 -0.0 0.7611420715427216 0.6485851886434459
50 25.494985701044495 15.21935495546571 57.32480071586535 6.141319719035261 2.0471065730117357 2.0471065730117357 0.0 0.0 0.5689873473401131 0.8223462765568174
51 46.022918896608616 28.475621794238275 39.053825770026485 6.203041008328896 2.0676803361096083 2.0676803361096083 0.0 -0.0 0.9816329176571261 0.1907794930592849
52 35.89700111925758 21.63907029549535 20.844838108069872 6.265382606892562 2.0884608689641504 2.0884608689641504 0.0 -0.0 0.8312938914163103 0.5558331279205367
53 12.061076733824919 60.44369238916118 5.6826957931404705 6.328350748937946 2.1094502496460223 2.1094502496460223 0.0 0.0 0.4937832216878833 0.8695850332081013
54 25.782594600099 52.61972515020035 38.65442945368107 6.391951731331998 2.1306505771106634 2.1306505771106634 0.0 -0.0 0.7425013715714329 0.6698445440656666
55 23.29855755926831 42.823399460434565 10.75545400877731 6.391951731331998 2.1306505771106634 2.1306505771106634 0.0 -0.0 0.899222239431846 0.4374921303419936
56 40.015970935472744 12.567783400973978 19.181253578328654 6.456191914225851 2.152063971408611 2.152063971408611 0.0 0.0 0.591041689671776 0.8066410112744902
57 53.48793028557129 0.34039149045224554 56.419711275114075 6.456191914225851 2.152063971408611 2.152063971408611 0.0 0.0 0.6906372933410847 0.7232013060320761
58 24.57842080394755 38.46775949679439 34.12898517619349 6.521077721691254 2.1736925738970814 2.1736925738970814 0.0 -0.0 0.9778925487455288 0.20910801779935065
59 29.923157835679593 52.672900608147636 21.881339601347733 6.521077721691254 2.1736925738970814 2.1736925738970814 0.0 -0.0 0.8334397726994561 0.5526103014626843
60 43.13398945041321 26.723720402513422 55.55229747338362 6.586615642363223 2.195538547454377 2.195538547454377 0.0 -0.0 0.8251393648538317 0.5649292243888745
61 8.787000889159224 3.224183788928366 42.49338001252086 6.586615642363223 2.195538547454377 2.195538547454377 0.0 -0.0 0.8342848482439009 0.5513336485202505
62 18.77786835296395 59.91139967715832 43.584642229070234 6.6528122300881245 2.2176040766960123 2.2176040766960123 0.0 0.0 0.6993489688984815 0.7147803996337831
63 32.86017624910963 2.2976691327854857 51.254807966953805 6.6528122300881245 2.2176040766960123 2.2176040766960123 0.0 0.0 0.6638694557235675 0.747848477806363
64 38.97525872009504 33.69343419471736 44.32136022672102 6.719674104580133 2.239891368193369 2.239891368193369 0.0 0.0 0.5469534661185369 0.8371630103515794
65 16.084203052354297 21.889067648567462 6.174696592054625 6.719674104580133 2.239891368193369 2.239891368193369 0.0 0.0 0.534266604389083 0.8453160328744268
66 27.8935637086195 59.40869461662342 28.93351073470845 6.7872079520821735 2.2624026506940895 2.2624026506940895 0.0 0.0 0.49259387534365895 0.8702593142126752
67 56.46486324645891 24.016822104257404 9.844915317443018 6.7872079520821735 2.2624026506940895 2.2624026506940895 0.0 -0.0 0.7991221049958454 0.6011687461162707
68 41.152669691699764 36.51529492268162 21.58019771173256 6.855420526035693 2.285140175345241 2.285140175345241 0.0 -0.0 0.8113628171424923 0.5845428803420658
69 34.91225760387942 11.979526912281774 55.926114406903544 6.855420526035693 2.285140175345241 2.285140175345241 0.0 0.0 0.69974083585519 0.7143967823532522
70 7.270886494204549 58.005389984583346 15.948324004705587 6.924318647754593 2.3081062159181873 2.3081062159181873 0.0 -0.0 0.9226100212719841 0.3857340387475665
71 17.576798448051868 2.0114466356728964 25.594527317237326 6.924318647754593 2.3081062159181873 2.3081062159181873 0.0 -0.0 0.8908476943010929 0.4543020862360491
72 4.14800974374031 43.476947075510786 11.063333949493803 6.99390920710848 2.3313030690361853 2.3313030690361853 0.0 -0.0 0.9180976465577227 0.39635427509384946
73 40.743101930683906 32.98444837379247 29.124826880571113 6.99390920710848 2.3313030690361853 2.3313030690361853 0.0 0.0 0.6852526383261238 0.7283054453092375
74 40.919420194467314 21.88217017886109 14.96305161134337 7.064199163211486 2.354733054403832 2.354733054403832 0.0 0.0 0.6622208999947843 0.7493086677799063
75 56.166600974483316 49.78491824457002 43.29191368524787 7.064199163211486 2.354733054403832 2.354733054403832 0.0 0.0 0.6669694181073614 0.7450850926636016
76 55.000306394065795 11.12466012821709 30.0818451649539 7.1351955451175195 2.3783985150392186 2.3783985150392186 0.0 0.0 0.4849872773235938 0.8745212066235144
77 18.100507793659816 47.08374548849004 19.897077303617852 7.1351955451175195 2.3783985150392186 2.3783985150392186 0.0 -0.0 0.724549744492829 0.6892225096116464
78 2.6327207168640574 13.570581240611748 14.159096653752124 7.206905452524197 2.4023018175080657 2.4023018175080657 0.0 0.0 0.646327957303847 0.7630597431442944
79 10.804081290563532 10.103121023676312 29.596560060508562 7.206905452524197 2.4023018175080657 2.4023018175080657 0.0 0.0 0.4210348644808628 0.9070444547493698
80 53.127079470355156 6.938248976904988 17.995826035699544 7.279336056481968 2.4264453521606213 2.4264453521606213 0.0 0.0 0.5786941501693628 0.8155446527074768
81 55.07293192741485 45.981635832650625 23.03530214383092 7.279336056481968 2.4264453521606213 2.4264453521606213 0.0 0.0 0.683142879342022 0.730284743373632
82 10.595965294368803 6.789267089794501 4.882993078835826 7.3524946001113785 2.450831533370421 2.450831533370421 0.0 0.0 0.3480344086077516 0.937481760049257
83 15.618805361183831 52.272052987096 1.9676920733211043 7.3524946001113785 2.450831533370421 2.450831533370421 0.0 -0.0 0.8280938516825816 0.560589486884571
84 33.29850640463458 12.257717637406056 7.44294850167779 7.426388399327807 2.4754627997759724 2.4754627997759724 0.0 -0.0 0.8521868438699086 0.5232375972109076
85 19.50304926206748 41.53194193406516 29.08817418803088 7.426388399327807 2.4754627997759724 2.4754627997759724 0.0 0.0 0.2683204071818837 0.9633297250109892
86 7.182565579128332 0.38168858165632746 59.06919355904651 7.501024843573 2.500341614524339 2.500341614524339 0.0 0.0 0.5717525694490604 0.8204261083902665
87 9.49100722359703 50.77849835711865 45.915953298567956 7.501024843573 2.500341614524339 2.500341614524339 0.0 -0.0 0.7407334016199733 0.6717990977401677
88 33.93434164270965 49.62865043583431 55.489789278405155 7.57641139655352 2.5254704655178006 2.5254704655178006 0.0 0.0 0.6524446383875427 0.7578363898885753
89 38.204310362372816 26.94180198819668 48.95970351513599 7.57641139655352 2.5254704655178006 2.5254704655178006 0.0 0.0 0.3815125934194192 0.9243636411404275
90 21.490547342420136 16.07320706202628 47.89789327814018 7.652555596987291 2.5508518656623997 2.5508518656623997 0.0 -0.0 0.7664413141092511 0.642314340511314
91 38.219251769705735 2.5227130496927304 29.833819946824853 7.652555596987291 2.5508518656623997 2.5508518656623997 0.0 -0.0 0.7164030651197486 0.6976866404676452
92 48.472096794627376 19.509162261215423 39.67355746999139 7.729465059357773 2.5764883531192555 2.5764883531192555 0.0 0.0 0.3159382626609752 0.9487797500931208
93 19.737996823122085 39.99110849876206 41.94953109047088 7.729465059357773 2.5764883531192555 2.5764883531192555 0.0 -0.0 0.807675111463051 0.5896277760783901
94 51.784695834799656 18.409484265709306 49.48207663321785 7.807147474675508 2.6023824915585325 2.6023824915585325 0.0 0.0 0.5856043209472178 0.8105970511221638
95 40.65930379780523 56.15521916678427 53.8928361662886 7.807147474675508 2.6023824915585325 2.6023824915585325 0.0 -0.0 0.8283891439806925 0.5601530381377355
96 42.154763412383666 10.15149484670307 41.78971616070767 7.885610611246757 2.6285368704156338 2.6285368704156338 0.0 0.0 0.6380161188650698 0.7700230074928626
97 26.331796100809562 12.790947371541073 26.902600228691202 7.885610611246757 2.6285368704156338 2.6285368704156338 0.0 0.0 0.5652655734899162 0.8249089837231233
98 17.23596459892652 22.000250699790186 40.30675578449327 7.964862315450588 2.654954105150157 2.654954105150157 0.0 -0.0 0.9884337224668884 0.15165347437579585
99 50.144771021729625 39.370456856425776 6.720877087167944 7.964862315450588 2.654954105150157 2.654954105150157 0.0 0.0 0.644584962479319 0.7645326848117973
100 32.75678357594494 30.533257298254526 52.84893219505246 8.044910512523167 2.681636837507762 2.681636837507762 0.0 -0.0 0.7665764345255346 0.6421530736748979
101 16.198940307606566 35.03931255817975 59.9964126000119 8.044910512523167 2.681636837507762 2.681636837507762 0.0 -0.0 0.7486465484609144 0.6629693397718779
102 42.87187082130669 40.10108455695015 12.933564514865036 8.125763207351165 2.7085877357837678 2.7085877357837678 0.0 -0.0 0.764238184631255 0.644934102952793
103 26.2984411210857 47.76808687618193 2.0048661569836015 8.125763207351165 2.7085877357837678 2.7085877357837678 0.0 -0.0 0.7262700822056904 0.6874094614514261
104 46.80498847025715 60.238712015263694 49.075196545607284 8.207428485271603 2.7358094950904825 2.7358094950904825 0.0 0.0 0.6864264585310771 0.7271992278794606
105 21.096218738745247 52.564915780011795 10.407530471096853 8.207428485271603 2.7358094950904825 2.7358094950904825 0.0 -0.0 0.8498704758576332 0.5269916263713497
106 14.509236656028104 11.387849538516294 55.71420983124209 8.289914512879868 2.7633048376266287 2.7633048376266287 0.0 -0.0 0.793590538753224 0.6084521811953406
107 40.09818903810287 56.72721527523251 19.460476107751422 8.289914512879868 2.7633048376266287 2.7633048376266287 0.0 -0.0 0.8299364941277125 0.5578578812878792
108 47.911083617431395 51.285648158658745 1.2192069649221025 8.373229538847815 2.7910765129492283 2.7910765129492283 0.0 -0.0 0.7596155095013813 0.650372414640225
109 59.56689471192846 34.34078177605527 6.175720992505641 8.373229538847815 2.7910765129492283 2.7910765129492283 0.0 -0.0 0.746179639226726 0.6657446552571586
110 42.769802773644656 12.581067894092346 52.52784861192426 8.457381894747297 2.8191272982490565 2.8191272982490565 0.0 -0.0 0.7434755474029917 0.6687631198068729
111 33.30022178932741 37.44476839987286 22.300324209553445 8.457381894747297 2.8191272982490565 2.8191272982490565 0.0 -0.0 0.7635489887521677 0.6457499065238353
112 49.363133401601075 57.6029419483379 13.750904164945316 8.542379995884042 2.847459998628065 2.847459998628065 0.0 -0.0 0.925703395166632 0.3782502137170186
113 16.353882819829984 8.36972510891454 10.973553940761443 8.542379995884042 2.847459998628065 2.847459998628065 0.0 -0.0 0.7476030998596368 0.6641457709571461
114 8.996021041058707 57.91103701293308 35.753582628715634 8.628232342139198 2.8760774473797217 2.8760774473797217 0.0 -0.0 0.7095009508808979 0.7047044775642494
115 26.300434326938912 13.644262583543501 50.87137840582286 8.628232342139198 2.8760774473797217 2.8760774473797217 0.0 0.0 0.692332939305712 0.7215782016887105
116 8.041833068057311 27.99533465092459 55.796709092535394 8.714947518818768 2.9049825062729084 2.9049825062729084 0.0 0.0 0.4838188577050026 0.8751681626573412
117 52.13875170965711 41.66724981022939 28.01664363905939 8.714947518818768 2.9049825062729084 2.9049825062729084 0.0 0.0 0.4072390243389004 0.9133216175343166
118 43.56784565800957 19.00845268950386 60.80607780742057 8.80253419751255 2.9341780658375183 2.9341780658375183 0.0 -0.0 0.9854258972554679 0.17010526452245991
119 37.06064613193808 31.481219993394184 57.119874451439856 8.80253419751255 2.9341780658375183 2.9341780658375183 0.0 0.0 0.693566054094668 0.720393037589587
120 29.09852978717667 28.822792834918157 33.282432334438234 8.891001136961696 2.9636670456538847 2.9636670456538847 0.0 -0.0 0.8546373086497397 0.5192254526349123
121 1.4088269666526676 50.06294798748949 58.438759369121634 8.891001136961696 2.9636670456538847 2.9636670456538847 0.0 -0.0 0.738138054050796 0.6746496966293722
122 52.723561043767624 32.66349655686655 60.677796617058355 8.98035718393366 2.993452394644578 2.993452394644578 0.0 0.0 0.30497028615780525 0.9523618663936657
123 43.20499737706495 43.21035698572364 51.29951103811238 8.98035718393366 2.993452394644578 2.993452394644578 0.0 -0.0 0.8240326158671573 0.5665423620411186
124 8.703094461177688 45.34128484070597 59.12964232136517 9.070611274107817 3.023537091369265 3.023537091369265 0.0 -0.0 0.7351480847541838 0.6779065521753388
125 0.2658974515639908 57.12984080949456 48.03227087474543 9.070611274107817 3.023537091369265 3.023537091369265 0.0 0.0 0.6354145425399089 0.7721711980699606
126 31.795886679712027 1.266609627831671 43.512809655601956 9.161772432968128 3.05392414432272 3.05392414432272 0.0 -0.0 0.9631928649301144 0.2688112812880415
127 54.12687498685765 27.688734198981027 42.677102001830214 9.161772432968128 3.05392414432272 3.05392414432272 0.0 0.0 0.6645731125154195 0.7472232451694524
128 9.936661553360652 42.45696710889548 53.60796534963651 9.253849776706446 3.0846165922354802 3.0846165922354802 0.0 -0.0 0.837305869343264 0.5467347447925007
129 34.97924577469618 60.58414250491795 8.185446571814708 9.253849776706446 3.0846165922354802 3.0846165922354802 0.0 0.0 0.6718759690179156 0.7406636768846148
130 30.10286947985124 41.698466928104395 13.221555359520258 9.34685251313424 3.115617504378058 3.115617504378058 0.0 -0.0 0.8172568989423515 0.5762735124323614
131 4.453850990439572 17.419340338459765 39.43060608685215 9.34685251313424 3.115617504378058 3.115617504378058 0.0 0.0 0.5650588956672867 0.8250505708302167
132 25.512692737093627 58.704413886357855 56.18069656587181 9.440789942602319 3.1469299808674367 3.1469299808674367 0.0 0.0 0.5632303093681869 0.8262999568008076
133 20.73097973815928 53.51594817331946 37.530561655533646 9.440789942602319 3.1469299808674367 3.1469299808674367 0.0 0.0 0.7047758212396541 0.7094300823872436
134 0.7840174561189851 32.19555975503968 44.13073665779131 9.535671458931889 3.1785571529772865 3.1785571529772865 0.0 -0.0 0.7457546235329385 0.6662207152882933
135 40.021110083475335 48.31738665410587 60.33308182943722 9.535671458931889 3.1785571529772865 3.1785571529772865 0.0 0.0 0.5807371118896761 0.8140911539097067
136 15.720927914991364 3.635319994204449 60.873421809794 9.631506550353896 3.210502183451304 3.210502183451304 0.0 -0.0 0.7765636880913803 0.6300387593933514
137 4.0861089119236205 46.384462145348245 22.877478759650494 9.631506550353896 3.210502183451304 3.210502183451304 0.0 -0.0 0.9207785641385271 0.39008567754147583
138 49.6819543963268 26.109779031753728 20.283120136854322 9.728304800457217 3.2427682668190396 3.2427682668190396 0.0 0.0 0.5933031767685688 0.8049790931672228
139 4.630189262392067 16.624549426971324 60.58047639018202 9.728304800457217 3.2427682668190396 3.2427682668190396 0.0 0.0 0.36293328461656904 0.9318151270061183
140 60.381464639496485 57.94053418687333 41.207869209914236 9.826075889147653 3.275358629715878 3.275358629715878 0.0 0.0 0.5657838974393875 0.8245535649054563
141 19.616188970239016 48.5541360656727 55.83916145596848 9.826075889147653 3.275358629715878 3.275358629715878 0.0 0.0 0.5898626798291705 0.8075035720941112
142 9.377983808266249 23.415276297865958 2.445000457071819 9.92482959361512 3.3082765312050886 3.3082765312050886 0.0 0.0 0.494526605223718 0.8691624915548904
143 30.84290076823121 0.6474072682307163 59.70090932097985 9.92482959361512 3.3082765312050886 3.3082765312050886 0.0 0.0 0.6621201748514545 0.7493976741721844
144 12.987201274414817 34.862584894950366 45.737986658440306 10.0245757893129 3.341525263104339 3.341525263104339 0.0 -0.0 0.8358120424685423 0.5490156916378287
145 8.198643987538382 24.688892533113634 14.77287075223014 10.0245757893129 3.341525263104339 3.341525263104339 0.0 -0.0 0.7380766977143534 0.6747168208152773
146 24.2072089259471 52.990607158306325 49.44686393587493 10.12532445094337 3.37510815031449 3.37510815031449 0.0 0.0 0.5600689403365469 0.8284460043179022
147 37.2721733984597 18.992693365390735 32.78376762316768 10.12532445094337 3.37510815031449 3.37510815031449 0.0 -0.0 0.8053653384335279 0.5927787712543771
148 57.56164799890888 22.906861442342176 55.29745240939888 10.227085653456863 3.4090285511523035 3.4090285511523035 0.0 -0.0 0.9475491048281723 0.31961022189430877
149 44.32019699048028 56.40372196636328 27.485525548354634 10.227085653456863 3.4090285511523035 3.4090285511523035 0.0 -0.0 0.8855269061838191 0.46458809543994295
150 18.308414876097427 25.794906050139804 21.197275442833323 10.329869573058227 3.4432898576860778 3.4432898576860778 0.0 -0.0 0.8997163709941051 0.43647502994466686
151 31.92732869126586 33.492021133353454 40.4258976713035 10.329869573058227 3.4432898576860778 3.4432898576860778 0.0 0.0 0.6949034215940625 0.7191030765174521
152 57.1806854247906 0.8029237194213259 1.7301561779979477 10.433686488225176 3.477895496075037 3.477895496075037 0.0 0.0 0.6496096252583186 0.7602679361723385
153 33.98108869241906 32.137003799592144 6.05405246090138 10.433686488225176 3.477895496075037 3.477895496075037 0.0 0.0 0.6980264017745981 0.7160720232110785
154 40.57936398491033 11.435172755329155 4.629654879484677 10.538546780735535 3.51284892691182 3.51284892691182 0.0 -0.0 0.9126309719920443 0.4087844284716046
155 18.91379625178445 39.62895263872387 5.498970331265091 10.538546780735535 3.51284892691182 3.51284892691182 0.0 0.0 0.34897032679986184 0.9371337743423815
156 32.60043270493667 42.981374236905 47.913936784082395 10.644460936706317 3.5481536455687137 3.5481536455687137 0.0 0.0 0.6995675014656925 0.7145665195718649
157 26.011490355042486 25.95125635205973 45.249720991824205 10.644460936706317 3.5481536455687137 3.5481536455687137 0.0 0.0 0.63565327495599 0.7719746848425306
158 50.156098668197984 58.295069386173324 41.73648925075972 10.751439547641152 3.5838131825470376 3.5838131825470376 0.0 -0.0 0.7426985308561326 0.6696259345814963
159 20.050131411330597 28.81968235479078 9.093149444667723 10.751439547641152 3.5838131825470376 3.5838131825470376 0.0 0.0 0.4891044501540252 0.8722252213961303
160 50.71490646365937 3.509815696842427 7.572908140509959 10.85949331149024 3.619831103830109 3.619831103830109 0.0 0.0 0.6466947184788655 0.7627489371290798
161 30.08210366909491 12.022630204010305 36.3733700566895 10.85949331149024 3.619831103830109 3.619831103830109 0.0 0.0 0.6377575578887067 0.7702371695496348
162 60.308111405146555 55.24008219475474 12.024802839136301 10.968633033720005 3.6562110112399733 3.6562110112399733 0.0 0.0 0.6701572236966805 0.7422191694689361
163 44.26295431692833 2.942537243391162 35.68442912175648 10.968633033720005 3.6562110112399733 3.6562110112399733 0.0 -0.0 0.7797338016261434 0.6261111711203069
164 44.20762438660719 41.66331616789881 36.436686765408176 11.078869628393832 3.6929565427979436 3.6929565427979436 0.0 0.0 0.6966086930688543 0.7174512727293072
165 0.629534901149314 32.17272121720354 17.73778611688717 11.078869628393832 3.6929565427979436 3.6929565427979436 0.0 -0.0 0.8994069955971553 0.43711217813153935
3_F 14.13004047372198 17.957015125660053 -1.2748722327130508 3.838338754646299 1.2794462515487874 1.2794462515487874 0.0 0.0 0.631512325711268 0.7753658378305981
7_T 26.008155291497673 -2.082815748076527 34.13653932072714 3.9949843308361106 1.331661443612033 1.331661443612033 0.0 -0.0 0.7603958793842515 0.6494598575858641
9_B 51.29395430144383 63.26941754305321 52.542607199529705 4.075688367704906 1.3585627892349703 1.3585627892349703 0.0 -0.0 0.7176002965020949 0.6964551776389529
22_B 18.418820869750892 64.05587570527935 30.01649864598871 4.641509594728264 1.5471698649094157 1.5471698649094157 0.0 -0.0 0.8910647246123514 0.45387625687131333
24_T 29.329615547636077 -0.4953783180667415 48.29503471590422 4.735274308288841 1.578424769429616 1.578424769429616 0.0 0.0 0.5255054740936084 0.8507902189715464
25_T 17.02425462517096 -0.16061091290646345 47.860890609164564 4.782864606276592 1.5942882020921743 1.5942882020921743 0.0 0.0 0.6637035342538496 0.7479957343587923
27_L -0.08351199390762787 27.739374127672136 28.010135717549797 4.87948488048985 1.626494960163281 1.626494960163281 0.0 -0.0 0.7297620279401082 0.6837012378054764
30_T 18.372745881313946 -2.4732382471579015 31.29530044020869 5.028087318458417 1.6760291061528212 1.6760291061528212 0.0 -0.0 0.8433777540022546 0.5373210995802349
36_BB 37.01562885430146 63.34376671132168 60.847431522457725 5.339006873960332 1.779668957986811 1.779668957986811 0.0 -0.0 0.739632735620696 0.6730107104632479
36_FT 37.01562885430146 2.4437667113216803 -0.05256847754227323 5.339006873960332 1.779668957986811 1.779668957986811 0.0 -0.0 0.739632735620696 0.6730107104632479
36_FB 37.01562885430146 63.34376671132168 -0.05256847754227323 5.339006873960332 1.779668957986811 1.779668957986811 0.0 -0.0 0.739632735620696 0.6730107104632479
37_B 19.63229363871898 61.377356060254975 15.197104607467558 5.392664785107241 1.7975549283690953 1.7975549283690953 0.0 0.0 0.5163603530767541 0.8563714064414165
40_R 61.25636272081152 23.726756348190303 15.773944870275585 5.556895877905239 1.8522986259683885 1.8522986259683885 0.0 -0.0 0.8608342640850161 0.5088854191045453
43_L -0.8138236704765447 42.569241937747485 38.30887804099774 5.726128552095022 1.9087095173649942 1.9087095173649942 0.0 -0.0 0.8971229945165649 0.4417808650333688
48_L -2.669939717708594 47.168587634813655 17.326800296584207 6.019713440950988 2.0065711469836636 2.0065711469836636 0.0 0.0 0.43861391052531945 0.8986756019241242
49_B 23.71378504267094 66.67609253414611 6.7041157278893655 6.080212566831316 2.02673752227712 2.02673752227712 0.0 -0.0 0.7611420715427216 0.6485851886434459
53_T 12.061076733824919 -0.4563076108388202 5.6826957931404705 6.328350748937946 2.1094502496460223 2.1094502496460223 0.0 0.0 0.4937832216878833 0.8695850332081013
57_B 53.48793028557129 61.24039149045225 56.419711275114075 6.456191914225851 2.152063971408611 2.152063971408611 0.0 0.0 0.6906372933410847 0.7232013060320761
61_B 8.787000889159224 64.12418378892836 42.49338001252086 6.586615642363223 2.195538547454377 2.195538547454377 0.0 -0.0 0.8342848482439009 0.5513336485202505
62_T 18.77786835296395 -0.9886003228416769 43.584642229070234 6.6528122300881245 2.2176040766960123 2.2176040766960123 0.0 0.0 0.6993489688984815 0.7147803996337831