ITEM: TIMESTEP
84
ITEM: NUMBER OF ATOMS
172
ITEM: BOX BOUNDS ff ff ff
0 60.9
60.9 0
60.9 0
ITEM: ATOMS id x y z AsphericalShapeX AsphericalShapeY AsphericalShapeZ OrientationX OrientationY OrientationZ OrientationW
1 36.19468849294013 12.111493585522378 5.326619640871481 0.5999970678715413 0.19999902262384672 0.19999902262384672 0.0 -0.0 0.7863642711635499 0.6177630881150306
2 27.620909338551396 0.7094803809474872 27.47525555147148 0.6060271386536606 0.20200904621788718 0.20200904621788718 0.0 -0.0 0.8896314041555925 0.4566792799549252
3 18.346918727281118 21.560874666841677 47.25971338376914 0.6121178126546714 0.20403927088489002 0.20403927088489002 0.0 0.0 0.631512325711268 0.7753658378305981
4 37.42533236208281 31.889475144605875 25.939095831241772 0.6182696989470451 0.20608989964901472 0.20608989964901472 0.0 0.0 0.5765741652112841 0.8170448164029381
5 13.490710975275409 26.768117570193162 43.13555195835245 0.624483412724542 0.20816113757484722 0.20816113757484722 0.0 -0.0 0.8873914294477543 0.4610167577677315
6 21.669674753302687 18.58227565849748 13.340219345932868 0.6307595753637144 0.210253191787905 0.210253191787905 0.0 0.0 0.643710445538684 0.7652691437033046
7 58.64181227318167 4.388144018214419 16.956597040904963 0.6370988144860588 0.2123662714953531 0.2123662714953531 0.0 -0.0 0.7603958793842515 0.6494598575858641
8 46.308436698379445 40.829354267278724 59.87213005211944 0.6435017640207676 0.21450058800692245 0.21450058800692245 0.0 -0.0 0.7854601334426244 0.6189122545016335
9 49.89819159519172 2.0913151154318266 2.3403970218025476 0.649969064268133 0.21665635475604444 0.21665635475604444 0.0 -0.0 0.7176002965020949 0.6964551776389529
10 25.147831751386654 50.66884381235781 9.913642640595807 0.6565013619635695 0.21883378732118913 0.21883378732118913 0.0 0.0 0.38534345666417513 0.9227732226317065
11 33.690559739835535 54.67153233646985 52.98459940725375 0.6630993103422871 0.2210331034474286 0.2210331034474286 0.0 0.0 0.49983922045674145 0.866118209999765
12 21.016141884360945 51.316197094179245 14.837584394400219 0.6697635692046229 0.2232545230682077 0.2232545230682077 0.0 0.0 0.2746680171135514 0.9615391205639581
13 31.71130664899654 52.53418534898143 56.74117604763749 0.6764948049820171 0.22549826832733894 0.22549826832733894 0.0 -0.0 0.7886508549344257 0.614841303924191
14 12.793702660095457 59.492857500418786 33.16337079783429 0.6832936908036575 0.22776456360121958 0.22776456360121958 0.0 -0.0 0.7750680292508737 0.6318777967559605
15 16.116505255305867 1.7580068114843757 32.11089656137364 0.690160906563792 0.23005363552126473 0.23005363552126473 0.0 0.0 0.6340811782098568 0.7732664866913604
16 16.34585469642612 46.37603151587543 45.380366605231316 0.6970971389897191 0.232365712996573 0.232365712996573 0.0 -0.0 0.7629176367612683 0.6464956918020424
17 35.92089426822894 43.49099323219102 34.982370062322865 0.7041030817104625 0.23470102723682026 0.23470102723682026 0.0 0.0 0.6579222258448839 0.7530858813836
18 7.010558538405454 48.570124172477875 50.72245685606587 0.7111794353261311 0.23705981177537655 0.23705981177537655 0.0 0.0 0.506211649243881 0.8624092799650234
19 6.582621732223288 10.024787851957766 43.533244969339734 0.7183269074779811 0.2394423024926601 0.2394423024926601 0.0 0.0 0.6434542777811493 0.7654845474633303
20 19.356278843721324 59.79019260042573 8.511289533039864 0.7255462129191894 0.24184873763972922 0.24184873763972922 0.0 -0.0 0.7861857262579329 0.6179902942832407
21 27.90400180200027 34.3731037678698 45.49056673302614 0.7328380735863108 0.2442793578621041 0.2442793578621041 0.0 0.0 0.6069811502172251 0.7947162281474907
22 32.20697939717225 4.87764079884286 13.81100804752878 0.740203218671494 0.24673440622383133 0.24673440622383133 0.0 -0.0 0.8910647246123514 0.45387625687131333
23 43.60497774229734 51.78590980044752 36.16604583021711 0.7476423846953798 0.24921412823179412 0.24921412823179412 0.0 -0.0 0.7582829367961579 0.651925599868416
24 23.098147754435452 49.62082815005239 45.333059148956906 0.755156315580776 0.2517187718602583 0.2517187718602583 0.0 0.0 0.5255054740936084 0.8507902189715464
25 0.30024137600317147 15.852645061254904 31.493482089082026 0.7627457627270259 0.2542485875756752 0.2542485875756752 0.0 0.0 0.6637035342538496 0.7479957343587923
26 54.464559756831925 32.459096093346055 15.274657867461904 0.770411485085175 0.2568038283617252 0.2568038283617252 0.0 0.0 0.5361151400853296 0.8441448670526212
27 57.398663479438376 40.18456553625098 0.5469125987182415 0.7781542492338432 0.2593847497446138 0.2593847497446138 0.0 -0.0 0.7297620279401082 0.6837012378054764
28 47.86128307952439 20.476581223218595 33.185687137576046 0.7859748294558967 0.2619916098186328 0.2619916098186328 0.0 -0.0 0.9828164757017253 0.18458541407500267
29 42.164066787177134 42.29078082027349 21.768330254618302 0.793874007815879 0.26462466927195966 0.26462466927195966 0.0 -0.0 0.8740853421614372 0.4857723897243679
30 14.367272110683803 18.82616876939918 37.28581977306099 0.8018525742382071 0.2672841914127354 0.2672841914127354 0.0 -0.0 0.8433777540022546 0.5373210995802349
31 26.223989923783595 41.893636673537785 38.07122170591479 0.8099113265861709 0.2699704421953903 0.2699704421953903 0.0 0.0 0.6952778540174372 0.7187410560924617
32 26.480009475617315 34.60667667321365 46.55575126632225 0.8180510707417238 0.27268369024724104 0.27268369024724104 0.0 0.0 0.6353234605105568 0.7722461398575527
33 23.16198514532642 20.33966378702247 18.620898933088515 0.8262726206860582 0.2754242068953536 0.2754242068953536 0.0 0.0 0.6411270229476993 0.7674347792784871
34 8.818396467023977 19.93962058939234 12.853878372733533 0.8345767985810264 0.27819226619367526 0.27819226619367526 0.0 -0.0 0.7453722743584635 0.6666484625480594
35 27.63581029181633 23.97081689124958 50.33858401441598 0.8429644348513375 0.280988144950445 0.280988144950445 0.0 -0.0 0.7109313362059317 0.7032614273514853
36 16.195904239952654 54.445688744343535 35.625861107420064 0.8514363682676048 0.2838121227558679 0.2838121227558679 0.0 -0.0 0.739632735620696 0.6730107104632479
37 54.95285673682827 44.477204653674136 44.96981667471732 0.8599934460302301 0.2866644820100767 0.2866644820100767 0.0 0.0 0.5163603530767541 0.8563714064414165
38 58.23495617472601 26.057382270051274 34.14230662278232 0.8686365238541215 0.28954550795137446 0.28954550795137446 0.0 0.0 0.5145463711011363 0.8574625542766586
39 3.425244064895205 34.09281064584308 10.088180166544758 0.8773664660542664 0.2924554886847556 0.2924554886847556 0.0 0.0 0.5880831456971182 0.8088004783300898
40 51.47410743771279 5.038034229772974 21.88295803594148 0.8861841456321575 0.29539471521071986 0.29539471521071986 0.0 -0.0 0.8608342640850161 0.5088854191045453
41 14.774998601527422 40.49597518003064 43.704451050320905 0.8950904443631026 0.29836348145436753 0.29836348145436753 0.0 0.0 0.5813114541301716 0.8136811373609846
42 39.081125386692385 21.012163128924335 25.576037890182544 0.9040862528843949 0.30136208429479827 0.30136208429479827 0.0 0.0 0.6858728758951139 0.7277213739552836
43 7.537312153124828 50.031181480309684 43.458536957471786 0.9131724707843832 0.30439082359479375 0.30439082359479375 0.0 -0.0 0.8971229945165649 0.4417808650333688
44 22.478260501509446 43.09340289614195 27.358275745863942 0.9223500066924264 0.307450002230809 0.307450002230809 0.0 -0.0 0.7662793896249596 0.6425075073771507
45 46.65675761322548 57.26173067851913 3.7995636736902068 0.9316197783697704 0.3105399261232562 0.3105399261232562 0.0 -0.0 0.8021859139948743 0.5970743332184094
46 26.275209866523724 50.48999429056511 19.13126297249897 0.9409827128013017 0.3136609042671008 0.3136609042671008 0.0 0.0 0.6689296931602822 0.7433256793683982
47 33.78831225941033 58.53284424892958 34.386234908956745 0.9504397462882659 0.31681324876275546 0.31681324876275546 0.0 -0.0 0.8121614142020023 0.5834328044268712
48 27.969349108779472 34.23147596254831 32.32780638786373 0.9599918245418967 0.31999727484729973 0.31999727484729973 0.0 0.0 0.43861391052531945 0.8986756019241242
49 16.867183065462946 28.639899119564195 57.1576888935291 0.9696399027779786 0.3232133009259937 0.3232133009259937 0.0 -0.0 0.7611420715427216 0.6485851886434459
50 26.76742883944274 58.42586736532588 52.00177376339978 0.9793849458123765 0.32646164860412447 0.32646164860412447 0.0 0.0 0.5689873473401131 0.8223462765568174
51 39.85550289022212 38.682760972530915 42.89568036153841 0.9892279281575095 0.3297426427191691 0.3297426427191691 0.0 -0.0 0.9816329176571261 0.1907794930592849
52 5.457283589320281 56.8313372913965 54.26600204622492 0.9991698341198147 0.3330566113732724 0.3330566113732724 0.0 -0.0 0.8312938914163103 0.5558331279205367
53 31.431176020067337 17.73900817602044 55.265451988951895 1.0092116578981822 0.33640388596605986 0.33640388596605986 0.0 0.0 0.4937832216878833 0.8695850332081013
54 14.761317156691216 21.70894027014948 18.616325489349148 1.019354403683346 0.3397848012277828 0.3397848012277828 0.0 -0.0 0.7425013715714329 0.6698445440656666
55 19.509988461003587 46.00782120230577 9.507187869086895 1.019354403683346 0.3397848012277828 0.3397848012277828 0.0 -0.0 0.899222239431846 0.4374921303419936
56 33.866228083963094 33.03204525325405 57.517316174169956 1.0295990857583455 0.3431996952527827 0.3431996952527827 0.0 0.0 0.591041689671776 0.8066410112744902
57 47.02774003643845 12.095375509388678 43.21362574371748 1.0295990857583455 0.3431996952527827 0.3431996952527827 0.0 0.0 0.6906372933410847 0.7232013060320761
58 31.83568835892627 25.736775778009505 31.867061372637252 1.0399467285999242 0.3466489095333082 0.3466489095333082 0.0 -0.0 0.9778925487455288 0.20910801779935065
59 32.1420179724395 36.62151203768741 0.9538870853977293 1.0399467285999242 0.3466489095333082 0.3466489095333082 0.0 -0.0 0.8334397726994561 0.5526103014626843
60 23.932953340152906 28.362957359756894 32.162825492412146 1.050398366980987 0.35013278899366235 0.35013278899366235 0.0 -0.0 0.8251393648538317 0.5649292243888745
61 37.62665259374695 20.061626227803394 2.3752600070971734 1.050398366980987 0.35013278899366235 0.35013278899366235 0.0 -0.0 0.8342848482439009 0.5513336485202505
62 47.401953988420885 6.491655194269576 25.90339239383715 1.0609550460740835 0.35365168202469494 0.35365168202469494 0.0 0.0 0.6993489688984815 0.7147803996337831
63 31.232920167266922 36.80547982574418 21.364067012336537 1.0609550460740835 0.35365168202469494 0.35365168202469494 0.0 0.0 0.6638694557235675 0.747848477806363
64 15.407727064884742 43.55935426935392 18.524480814571234 1.0716178215559182 0.35720594051864046 0.35720594051864046 0.0 0.0 0.5469534661185369 0.8371630103515794
65 60.15753931248857 55.79595111801703 34.11526645888671 1.0716178215559182 0.35720594051864046 0.35720594051864046 0.0 0.0 0.534266604389083 0.8453160328744268
66 39.56534870468235 8.10181869199417 23.864846704236523 1.0823877597129306 0.3607959199043097 0.3607959199043097 0.0 0.0 0.49259387534365895 0.8702593142126752
67 57.04287138201009 4.053382941682223 60.15357599009025 1.0823877597129306 0.3607959199043097 0.3607959199043097 0.0 -0.0 0.7991221049958454 0.6011687461162707
68 13.719443319790877 44.768527874310706 35.33503317705109 1.093265937547903 0.3644219791826331 0.3644219791826331 0.0 -0.0 0.8113628171424923 0.5845428803420658
69 45.113208264248506 55.83222292271665 23.851446147071492 1.093265937547903 0.3644219791826331 0.3644219791826331 0.0 0.0 0.69974083585519 0.7143967823532522
70 29.463954200636003 19.890755054627405 16.793741453079928 1.1042534428876867 0.36808448096256263 0.36808448096256263 0.0 -0.0 0.9226100212719841 0.3857340387475665
71 2.0235235375064624 43.47794300921154 0.7964849822590667 1.1042534428876867 0.36808448096256263 0.36808448096256263 0.0 -0.0 0.8908476943010929 0.4543020862360491
72 48.42292168151814 18.1546836891169 11.029302644810159 1.1153513744919747 0.3717837914973259 0.3717837914973259 0.0 -0.0 0.9180976465577227 0.39635427509384946
73 48.51285517577733 40.121399464608636 32.7195882176722 1.1153513744919747 0.3717837914973259 0.3717837914973259 0.0 0.0 0.6852526383261238 0.7283054453092375
74 4.035275520813038 16.963695473105147 19.976039329538118 1.126560842163176 0.3755202807210587 0.3755202807210587 0.0 0.0 0.6622208999947843 0.7493086677799063
75 39.62765391046441 24.716891773065832 56.38156962881805 1.126560842163176 0.3755202807210587 0.3755202807210587 0.0 0.0 0.6669694181073614 0.7450850926636016
76 10.911921631420233 55.9066463295454 10.433341237657304 1.1378829668573975 0.37929432228579874 0.37929432228579874 0.0 0.0 0.4849872773235938 0.8745212066235144
77 44.795289941613525 50.352641672003536 30.436000620754456 1.1378829668573975 0.37929432228579874 0.37929432228579874 0.0 -0.0 0.724549744492829 0.6892225096116464
78 50.714514436405224 25.28576205370507 56.724059668477835 1.1493188807965418 0.3831062935988473 0.3831062935988473 0.0 0.0 0.646327957303847 0.7630597431442944
79 20.088250907948396 0.21289279870476097 2.0239649312902044 1.1493188807965418 0.3831062935988473 0.3831062935988473 0.0 0.0 0.4210348644808628 0.9070444547493698
80 18.977528526965315 50.77206837109601 35.10204415256336 1.1608697275815356 0.3869565758605116 0.3869565758605116 0.0 0.0 0.5786941501693628 0.8155446527074768
81 11.710728209615763 31.593871485508316 33.45933511132681 1.1608697275815356 0.3869565758605116 0.3869565758605116 0.0 0.0 0.683142879342022 0.730284743373632
82 47.18026051503303 54.35607509963962 43.14751011152128 1.1725366623066837 0.3908455541022284 0.3908455541022284 0.0 0.0 0.3480344086077516 0.937481760049257
83 23.291266552732534 12.801933723155866 55.467903719868445 1.1725366623066837 0.3908455541022284 0.3908455541022284 0.0 -0.0 0.8280938516825816 0.560589486884571
84 58.191915265265955 7.891398121352214 1.668837668628699 1.1843208516751782 0.3947736172250601 0.3947736172250601 0.0 -0.0 0.8521868438699086 0.5232375972109076
85 57.35091414251325 42.40316473256535 1.6701974884070563 1.1843208516751782 0.3947736172250601 0.3947736172250601 0.0 0.0 0.2683204071818837 0.9633297250109892
86 57.38888278734012 27.282589346892685 3.7340569612900523 1.1962234741157776 0.3987411580385932 0.3987411580385932 0.0 0.0 0.5717525694490604 0.8204261083902665
87 52.08977473581934 43.69709128451974 46.8239130753611 1.1962234741157776 0.3987411580385932 0.3987411580385932 0.0 -0.0 0.7407334016199733 0.6717990977401677
88 15.24085856655212 24.117981953597003 58.71255198172814 1.208245719900645 0.4027485733002156 0.4027485733002156 0.0 0.0 0.6524446383875427 0.7578363898885753
89 20.252139869597308 5.408677218711474 55.240762747282666 1.208245719900645 0.4027485733002156 0.4027485733002156 0.0 0.0 0.3815125934194192 0.9243636411404275
90 36.160043542278 44.906894498428514 36.19616016875888 1.220388791264377 0.40679626375479305 0.40679626375479305 0.0 -0.0 0.7664413141092511 0.642314340511314
91 59.44828496067601 28.693816747483364 32.33849562261912 1.220388791264377 0.40679626375479305 0.40679626375479305 0.0 -0.0 0.7164030651197486 0.6976866404676452
92 35.63191503432374 56.68357028248393 36.88116680116363 1.2326539025242307 0.410884634174744 0.410884634174744 0.0 0.0 0.3159382626609752 0.9487797500931208
93 20.04134400288934 22.687398485527396 18.207742318457406 1.2326539025242307 0.410884634174744 0.410884634174744 0.0 -0.0 0.807675111463051 0.5896277760783901
94 25.02309246758087 19.01600652825684 0.0905391041372674 1.245042280201552 0.4150140934005161 0.4150140934005161 0.0 0.0 0.5856043209472178 0.8105970511221638
95 31.846181239445997 49.443447440247084 59.145742103811976 1.245042280201552 0.4150140934005161 0.4150140934005161 0.0 -0.0 0.8283891439806925 0.5601530381377355
96 26.44945444913374 38.165640441341395 35.08491728150925 1.25755516314443 0.4191850543814754 0.4191850543814754 0.0 0.0 0.6380161188650698 0.7700230074928626
97 31.180795356339516 50.012879756107914 15.233427534529788 1.25755516314443 0.4191850543814754 0.4191850543814754 0.0 0.0 0.5652655734899162 0.8249089837231233
98 17.018473014939115 10.15573053116112 21.445125219502465 1.2701938026515898 0.42339793421719646 0.42339793421719646 0.0 -0.0 0.9884337224668884 0.15165347437579585
99 52.491936528853124 27.479720078223078 58.07519257119202 1.2701938026515898 0.42339793421719646 0.42339793421719646 0.0 0.0 0.644584962479319 0.7645326848117973
100 37.48632451931637 38.46264076150642 39.330602188300126 1.282959462597509 0.4276531541991701 0.4276531541991701 0.0 -0.0 0.7665764345255346 0.6421530736748979
101 27.542770615116876 46.55463757731349 5.708684142905774 1.282959462597509 0.4276531541991701 0.4276531541991701 0.0 -0.0 0.7486465484609144 0.6629693397718779
102 1.7937771552084645 25.679780729281806 32.63368360552846 1.2958534195588327 0.4319511398529433 0.4319511398529433 0.0 -0.0 0.764238184631255 0.644934102952793
103 34.42610284852361 17.392381656298927 35.58418954574604 1.2958534195588327 0.4319511398529433 0.4319511398529433 0.0 -0.0 0.7262700822056904 0.6874094614514261
104 16.369099935661442 35.426454925154246 17.822038836841653 1.3088769629419863 0.43629232098066173 0.43629232098066173 0.0 0.0 0.6864264585310771 0.7271992278794606
105 58.46675245016624 47.35440267792009 13.249268073091134 1.3088769629419863 0.43629232098066173 0.43629232098066173 0.0 -0.0 0.8498704758576332 0.5269916263713497
106 54.03556043195947 45.96063868499074 40.20110833105342 1.322031395112172 0.4406771317040579 0.4406771317040579 0.0 -0.0 0.793590538753224 0.6084521811953406
107 37.316284198896724 38.128963991673515 28.13989532712657 1.322031395112172 0.4406771317040579 0.4406771317040579 0.0 -0.0 0.8299364941277125 0.5578578812878792
108 57.81108758157184 24.713352101425652 46.58634016560215 1.335318031523563 0.4451060105078557 0.4451060105078557 0.0 -0.0 0.7596155095013813 0.650372414640225
109 42.74088141246587 24.986596524442554 48.517113921005965 1.335318031523563 0.4451060105078557 0.4451060105078557 0.0 -0.0 0.746179639226726 0.6657446552571586
110 26.946311787879313 2.3024354938651848 50.749693018516794 1.3487382008508775 0.44957940028362664 0.44957940028362664 0.0 -0.0 0.7434755474029917 0.6687631198068729
111 35.81453441660136 45.176967646808095 58.382665323951876 1.3487382008508775 0.44957940028362664 0.44957940028362664 0.0 -0.0 0.7635489887521677 0.6457499065238353
112 45.123422426773594 41.24095341081969 12.983696626114696 1.3622932451222305 0.4540977483740758 0.4540977483740758 0.0 -0.0 0.925703395166632 0.3782502137170186
113 53.68496668560917 38.06923576974994 24.092276505178205 1.3622932451222305 0.4540977483740758 0.4540977483740758 0.0 -0.0 0.7476030998596368 0.6641457709571461
114 15.016514019819027 49.21337173379519 30.610353196930532 1.375984519853339 0.45866150661778005 0.45866150661778005 0.0 -0.0 0.7095009508808979 0.7047044775642494
115 52.98997594207904 47.8466371000883 33.681026645053784 1.375984519853339 0.45866150661778005 0.45866150661778005 0.0 0.0 0.692332939305712 0.7215782016887105
116 16.095012385273346 19.831081630283713 0.9097919191381785 1.3898133941830957 0.46327113139436626 0.46327113139436626 0.0 0.0 0.4838188577050026 0.8751681626573412
117 29.524309618450506 60.006333942084325 15.653898836549214 1.3898133941830957 0.46327113139436626 0.46327113139436626 0.0 0.0 0.4072390243389004 0.9133216175343166
118 31.235468083610655 55.58249787144869 10.541021943675489 1.4037812510104495 0.4679270836701512 0.4679270836701512 0.0 -0.0 0.9854258972554679 0.17010526452245991
119 31.26114765724445 53.33495727358126 59.33847854849353 1.4037812510104495 0.4679270836701512 0.4679270836701512 0.0 0.0 0.693566054094668 0.720393037589587
120 11.75452366092585 31.4837246526641 60.767652822907365 1.4178894871327261 0.47262982904424344 0.47262982904424344 0.0 -0.0 0.8546373086497397 0.5192254526349123
121 12.381995889658128 32.720922736634044 5.176484347962601 1.4178894871327261 0.47262982904424344 0.47262982904424344 0.0 -0.0 0.738138054050796 0.6746496966293722
122 35.41568820661306 9.364128209719906 52.570194206295625 1.4321395133852999 0.47737983779509846 0.47737983779509846 0.0 0.0 0.30497028615780525 0.9523618663936657
123 2.6459949416748465 27.946885238845937 11.07536549540153 1.4321395133852999 0.47737983779509846 0.47737983779509846 0.0 -0.0 0.8240326158671573 0.5665423620411186
124 51.57255618229054 22.162244614465852 50.1536512137659 1.446532754782658 0.4821775849275532 0.4821775849275532 0.0 -0.0 0.7351480847541838 0.6779065521753388
125 7.140340106268175 23.5022013278141 2.8758122986702723 1.446532754782658 0.4821775849275532 0.4821775849275532 0.0 0.0 0.6354145425399089 0.7721711980699606
126 16.212691458565768 58.888211744946645 25.196605951860022 1.4610706506609443 0.48702355022031474 0.48702355022031474 0.0 -0.0 0.9631928649301144 0.2688112812880415
127 56.86738647303879 41.42060716574915 38.486062869348245 1.4610706506609443 0.48702355022031474 0.48702355022031474 0.0 0.0 0.6645731125154195 0.7472232451694524
128 25.272755953786003 14.13597831683905 33.80042688060807 1.4757546548218632 0.49191821827395454 0.49191821827395454 0.0 -0.0 0.837305869343264 0.5467347447925007
129 41.142210570827984 5.205307097496977 50.8101843370582 1.4757546548218632 0.49191821827395454 0.49191821827395454 0.0 0.0 0.6718759690179156 0.7406636768846148
130 55.88069942868291 39.759133529062915 23.00893607556528 1.490586235678058 0.49686207855935277 0.49686207855935277 0.0 -0.0 0.8172568989423515 0.5762735124323614
131 41.01804132399076 34.867543208727476 31.576443097998663 1.490586235678058 0.49686207855935277 0.49686207855935277 0.0 0.0 0.5650588956672867 0.8250505708302167
132 9.370739179200468 32.169539565522946 40.70075323290668 1.5055668763999843 0.501855625466661 0.501855625466661 0.0 0.0 0.5632303093681869 0.8262999568008076
133 36.704789442645705 14.097393604126545 11.079360476225377 1.5055668763999843 0.501855625466661 0.501855625466661 0.0 0.0 0.7047758212396541 0.7094300823872436
134 29.840084602664177 15.228972371243087 39.59768593476373 1.5206980750641923 0.5068993583547302 0.5068993583547302 0.0 -0.0 0.7457546235329385 0.6662207152882933
135 44.25772976070208 19.739959184556565 34.590858889152514 1.5206980750641923 0.5068993583547302 0.5068993583547302 0.0 0.0 0.5807371118896761 0.8140911539097067
136 50.49932630892275 37.23553041763603 36.64356755657699 1.535981344803163 0.5119937816010531 0.5119937816010531 0.0 -0.0 0.7765636880913803 0.6300387593933514
137 59.016464825920224 54.352774894951494 11.60795684456172 1.535981344803163 0.5119937816010531 0.5119937816010531 0.0 -0.0 0.9207785641385271 0.39008567754147583
138 28.633044970020585 55.64884787522521 46.522779073898356 1.5514182139565977 0.5171394046521992 0.5171394046521992 0.0 0.0 0.5933031767685688 0.8049790931672228
139 57.77028682953173 23.660296198223637 47.766800210211805 1.5514182139565977 0.5171394046521992 0.5171394046521992 0.0 0.0 0.36293328461656904 0.9318151270061183
140 39.03650952186129 55.83627899663871 49.79266519749583 1.5670102262242827 0.5223367420747613 0.5223367420747613 0.0 0.0 0.5657838974393875 0.8245535649054563
141 46.320122285571344 5.9661957324502755 43.1816947734102 1.5670102262242827 0.5223367420747613 0.5223367420747613 0.0 0.0 0.5898626798291705 0.8075035720941112
142 0.15449244765642334 30.56465916930883 44.107356202738934 1.5827589408204346 0.5275863136068117 0.5275863136068117 0.0 0.0 0.494526605223718 0.8691624915548904
143 42.01261520248698 30.8417155324939 13.666705462638886 1.5827589408204346 0.5275863136068117 0.5275863136068117 0.0 0.0 0.6621201748514545 0.7493976741721844
144 2.2249428792900563 36.21763932211882 31.863842545245845 1.5986659326296437 0.5328886442098796 0.5328886442098796 0.0 -0.0 0.8358120424685423 0.5490156916378287
145 4.964791342301692 0.6223914409273243 31.903901845651113 1.5986659326296437 0.5328886442098796 0.5328886442098796 0.0 -0.0 0.7380766977143534 0.6747168208152773
146 42.09959705076925 4.321115710890051 47.99910490058637 1.6147327923643393 0.5382442641214469 0.5382442641214469 0.0 0.0 0.5600689403365469 0.8284460043179022
147 40.154744402885285 28.724413131774753 41.70828010581321 1.6147327923643393 0.5382442641214469 0.5382442641214469 0.0 -0.0 0.8053653384335279 0.5927787712543771
148 5.779972407344193 30.246351447257545 55.318369587340236 1.6309611267238855 0.5436537089079615 0.5436537089079615 0.0 -0.0 0.9475491048281723 0.31961022189430877
149 30.490251414156752 47.946236876163304 27.61276740967591 1.6309611267238855 0.5436537089079615 0.5436537089079615 0.0 -0.0 0.8855269061838191 0.46458809543994295
150 9.076541029543325 35.889769688788675 14.038981700036803 1.6473525585552407 0.5491175195184141 0.5491175195184141 0.0 -0.0 0.8997163709941051 0.43647502994466686
151 28.18887625819004 59.398515375895464 56.610972883003505 1.6473525585552407 0.5491175195184141 0.5491175195184141 0.0 0.0 0.6949034215940625 0.7191030765174521
152 7.457774826049924 12.344085895879527 12.892856269480145 1.66390872701525 0.5546362423384185 0.5546362423384185 0.0 0.0 0.6496096252583186 0.7602679361723385
153 59.512392865241964 46.98394210780828 53.7265628440825 1.66390872701525 0.5546362423384185 0.5546362423384185 0.0 0.0 0.6980264017745981 0.7160720232110785
154 44.185126270542064 46.009544976431975 22.56863205542257 1.6806312877345602 0.560210429244854 0.560210429244854 0.0 -0.0 0.9126309719920443 0.4087844284716046
155 18.904010606131635 23.615619439448334 16.20598272635546 1.6806312877345602 0.560210429244854 0.560210429244854 0.0 0.0 0.34897032679986184 0.9371337743423815
156 55.33137774634915 7.612910713234646 5.072762610236969 1.6975219129831765 0.5658406376610593 0.5658406376610593 0.0 0.0 0.6995675014656925 0.7145665195718649
157 29.610738865420032 10.377178545874497 41.8154653026574 1.6975219129831765 0.5658406376610593 0.5658406376610593 0.0 0.0 0.63565327495599 0.7719746848425306
158 46.68069033545343 9.104059009658473 22.960774030934054 1.7145822918376887 0.5715274306125646 0.5715274306125646 0.0 -0.0 0.7426985308561326 0.6696259345814963
159 8.932617948081077 21.70217749902872 25.964228344279384 1.7145822918376887 0.5715274306125646 0.5715274306125646 0.0 0.0 0.4891044501540252 0.8722252213961303
160 44.113401524306646 33.854715128942 11.954755018143116 1.7318141303502146 0.5772713767834049 0.5772713767834049 0.0 0.0 0.6466947184788655 0.7627489371290798
161 27.13021083244479 19.505650671050645 43.415867545983964 1.7318141303502146 0.5772713767834049 0.5772713767834049 0.0 0.0 0.6377575578887067 0.7702371695496348
162 55.995337164116464 48.41207920390568 52.84762069307002 1.7492191517189586 0.5830730505729866 0.5830730505729866 0.0 0.0 0.6701572236966805 0.7422191694689361
163 42.58559532930272 23.19193896124346 41.0113883534779 1.7492191517189586 0.5830730505729866 0.5830730505729866 0.0 -0.0 0.7797338016261434 0.6261111711203069
164 25.870990743428017 28.942096438092868 26.819994285493912 1.766799096460558 0.588933032153519 0.588933032153519 0.0 0.0 0.6966086930688543 0.7174512727293072
165 59.33084686574406 50.70725138038925 7.88797698146219 1.766799096460558 0.588933032153519 0.588933032153519 0.0 -0.0 0.8994069955971553 0.43711217813153935
79_B 20.088250907948396 61.112892798704756 2.0239649312902044 1.1493188807965418 0.3831062935988473 0.3831062935988473 0.0 0.0 0.4210348644808628 0.9070444547493698
94_Ba 25.02309246758087 19.01600652825684 60.99053910413727 1.245042280201552 0.4150140934005161 0.4150140934005161 0.0 0.0 0.5856043209472178 0.8105970511221638
117_T 29.524309618450506 -0.8936660579156737 15.653898836549214 1.3898133941830957 0.46327113139436626 0.46327113139436626 0.0 0.0 0.4072390243389004 0.9133216175343166
120_F 11.75452366092585 31.4837246526641 -0.13234717709263322 1.4178894871327261 0.47262982904424344 0.47262982904424344 0.0 -0.0 0.8546373086497397 0.5192254526349123
142_R 61.05449244765642 30.56465916930883 44.107356202738934 1.5827589408204346 0.5275863136068117 0.5275863136068117 0.0 0.0 0.494526605223718 0.8691624915548904
145_B 4.964791342301692 61.52239144092732 31.903901845651113 1.5986659326296437 0.5328886442098796 0.5328886442098796 0.0 -0.0 0.7380766977143534 0.6747168208152773
151_T 28.18887625819004 -1.5014846241045348 56.610972883003505 1.6473525585552407 0.5491175195184141 0.5491175195184141 0.0 0.0 0.6949034215940625 0.7191030765174521
