ITEM: TIMESTEP
412
ITEM: NUMBER OF ATOMS
225
ITEM: BOX BOUNDS ff ff ff
0 60.9
60.9 0
60.9 0
ITEM: ATOMS id x y z AsphericalShapeX AsphericalShapeY AsphericalShapeZ OrientationX OrientationY OrientationZ OrientationW
1 46.66780349975383 46.428382410562776 25.00366198014692 2.915279870952323 0.9717599569841128 0.9717599569841128 0.0 -0.0 0.7863642711635499 0.6177630881150306
2 13.676940277315591 13.921882963358776 23.987135232168175 2.9445789207525084 0.9815263069174879 0.9815263069174879 0.0 -0.0 0.8896314041555925 0.4566792799549252
3 11.04175251394237 24.53223170566549 58.53713089307832 2.974172430898553 0.9913908102995215 0.9913908102995215 0.0 0.0 0.631512325711268 0.7753658378305981
4 21.342660341572692 50.16115094904184 45.387341669227 3.0040633607662497 1.0013544535887395 1.0013544535887395 0.0 0.0 0.5765741652112841 0.8170448164029381
5 42.5151691105856 3.539616578024033 9.87106891903273 3.0342546994733772 1.0114182331577812 1.0114182331577812 0.0 -0.0 0.8873914294477543 0.4610167577677315
6 29.326132178706665 60.84094703381123 19.598276451388145 3.0647494661789905 1.0215831553930028 1.0215831553930028 0.0 0.0 0.643710445538684 0.7652691437033046
7 34.7493134115916 60.55047704646555 29.53476906720334 3.095550710385204 1.031850236795073 1.031850236795073 0.0 -0.0 0.7603958793842515 0.6494598575858641
8 44.77724738339527 32.90466517917242 17.498471355113214 3.126661512242078 1.042220504080695 1.042220504080695 0.0 -0.0 0.7854601334426244 0.6189122545016335
9 47.88788389963754 59.15642463537574 50.71051236885598 3.1580849828557693 1.052694994285258 1.052694994285258 0.0 -0.0 0.7176002965020949 0.6964551776389529
10 60.32158651644692 5.017503324596189 12.032586334626329 3.1898242645994666 1.0632747548664931 1.0632747548664931 0.0 0.0 0.38534345666417513 0.9227732226317065
11 30.26164978340964 28.389745080751247 1.3582664073485478 3.2218825314278208 1.0739608438092698 1.0739608438092698 0.0 0.0 0.49983922045674145 0.866118209999765
12 58.93917600533131 8.356590379548527 25.118531533635217 3.2542629891942014 1.0847543297314042 1.0847543297314042 0.0 0.0 0.2746680171135514 0.9615391205639581
13 7.381738828590761 55.76859505730628 18.604540521630888 3.2869688759714806 1.0956562919904815 1.0956562919904815 0.0 -0.0 0.7886508549344257 0.614841303924191
14 14.968756022208563 33.27497853252266 27.462630500484742 3.320003462375437 1.1066678207917957 1.1066678207917957 0.0 -0.0 0.7750680292508737 0.6318777967559605
15 25.81294880448803 44.93933878286983 25.16996682016342 3.3533700518922895 1.1177900172974373 1.1177900172974373 0.0 0.0 0.6340811782098568 0.7732664866913604
16 14.828794991471742 33.79085100793667 54.27873593662257 3.387071981208906 1.1290239937362894 1.1290239937362894 0.0 -0.0 0.7629176367612683 0.6464956918020424
17 27.42301703700887 15.619900836543675 36.41024234238263 3.4211126205461357 1.1403708735153693 1.1403708735153693 0.0 0.0 0.6579222258448839 0.7530858813836
18 39.297658042155234 31.834629455392225 15.572287696880629 3.455495373996387 1.1518317913321197 1.1518317913321197 0.0 0.0 0.506211649243881 0.8624092799650234
19 23.73432075279797 12.407291651425433 41.71707695049253 3.490223679863632 1.163407893287864 1.163407893287864 0.0 0.0 0.6434542777811493 0.7654845474633303
20 30.47118417178501 59.22608934423737 34.544880140155186 3.525301011007372 1.1751003370024617 1.1751003370024617 0.0 -0.0 0.7861857262579329 0.6179902942832407
21 43.978277166651544 24.711381909927546 48.55169728180266 3.560730875189978 1.186910291729975 1.186910291729975 0.0 0.0 0.6069811502172251 0.7947162281474907
22 9.955491962647836 55.62537100860082 38.73058051753658 3.596516815427344 1.1988389384757847 1.1988389384757847 0.0 -0.0 0.8910647246123514 0.45387625687131333
23 43.08803897746162 53.36038233619376 48.12871867918631 3.6326624103434546 1.2108874701144827 1.2108874701144827 0.0 -0.0 0.7582829367961579 0.651925599868416
24 30.191627568728133 3.1961798369349075 50.72069615409505 3.669171274527779 1.2230570915092587 1.2230570915092587 0.0 0.0 0.5255054740936084 0.8507902189715464
25 19.089918039836007 58.221817362061365 55.69395916443615 3.706047058897236 1.2353490196323977 1.2353490196323977 0.0 0.0 0.6637035342538496 0.7479957343587923
26 57.41225921409147 3.459741141681136 31.35751931484412 3.7432934510608753 1.2477644836869728 1.2477644836869728 0.0 0.0 0.5361151400853296 0.8441448670526212
27 0.13900618862381142 12.183246350203882 21.385756412273206 3.78091417568911 1.2603047252297155 1.2603047252297155 0.0 -0.0 0.7297620279401082 0.6837012378054764
28 25.907950088494538 32.11079913735405 38.18805413934701 3.818912994885689 1.2729709982952258 1.2729709982952258 0.0 -0.0 0.9828164757017253 0.18458541407500267
29 44.97062527784373 27.22690712699262 30.585519259106746 3.8572937085642 1.2857645695214135 1.2857645695214135 0.0 -0.0 0.8740853421614372 0.4857723897243679
30 17.865741162180218 3.502249429136926 29.343670400743264 3.8960601548279756 1.2986867182760056 1.2986867182760056 0.0 -0.0 0.8433777540022546 0.5373210995802349
31 49.21077987946962 48.02655185753555 44.09946812375325 3.9352162103539716 1.3117387367846718 1.3117387367846718 0.0 0.0 0.6952778540174372 0.7187410560924617
32 60.35824482798892 31.07130921078642 34.09760390793283 3.9747657907803404 1.3249219302601276 1.3249219302601276 0.0 0.0 0.6353234605105568 0.7722461398575527
33 27.219104655198304 25.9302034051407 26.426152512407164 4.014712851098128 1.3382376170327057 1.3382376170327057 0.0 0.0 0.6411270229476993 0.7674347792784871
34 16.813839932957936 13.621041655267318 29.753374391622067 4.0550613860466145 1.3516871286822205 1.3516871286822205 0.0 -0.0 0.7453722743584635 0.6666484625480594
35 26.55190382252847 47.040546034110506 42.01099751230093 4.09581543051298 1.3652718101709982 1.3652718101709982 0.0 -0.0 0.7109313362059317 0.7032614273514853
36 34.77685286200252 8.792646753023314 4.391037828465013 4.136979059935501 1.3789930199785163 1.3789930199785163 0.0 -0.0 0.739632735620696 0.6730107104632479
37 23.024581869036105 56.15296324325859 22.834542987423745 4.178556390711583 1.392852130237209 1.392852130237209 0.0 0.0 0.5163603530767541 0.8563714064414165
38 21.09814528886587 3.3985320010235434 19.810958525637993 4.220551580608835 1.406850526869605 1.406850526869605 0.0 0.0 0.5145463711011363 0.8574625542766586
39 14.811873556921757 26.812124514483205 26.58806444238242 4.2629688291813155 1.4209896097271053 1.4209896097271053 0.0 0.0 0.5880831456971182 0.8088004783300898
40 57.94405487559242 25.63855822198639 15.11622490453949 4.305812378189229 1.4352707927297272 1.4352707927297272 0.0 -0.0 0.8608342640850161 0.5088854191045453
41 12.194565713071974 12.129950766064955 36.76184564576016 4.349086512023075 1.4496955040076862 1.4496955040076862 0.0 0.0 0.5813114541301716 0.8136811373609846
42 17.103630549174774 4.627396023050852 41.669354564266776 4.392795558132398 1.4642651860441378 1.4642651860441378 0.0 0.0 0.6858728758951139 0.7277213739552836
43 8.166222580043854 7.612735371761691 31.572957929558356 4.436943887458216 1.4789812958194097 1.4789812958194097 0.0 -0.0 0.8971229945165649 0.4417808650333688
44 43.690271851124805 20.07958656773814 31.793579301568386 4.48153591487029 1.4938453049567473 1.4938453049567473 0.0 -0.0 0.7662793896249596 0.6425075073771507
45 38.24046891368759 43.01078535889867 36.880218498460245 4.526576099608409 1.5088586998694615 1.5088586998694615 0.0 -0.0 0.8021859139948743 0.5970743332184094
46 16.732457062626636 31.53535600969716 16.531700856163155 4.572068945728662 1.524022981909562 1.524022981909562 0.0 0.0 0.6689296931602822 0.7433256793683982
47 51.54556358000845 19.01772068456201 16.092420855667584 4.618019002553572 1.5393396675178574 1.5393396675178574 0.0 -0.0 0.8121614142020023 0.5834328044268712
48 0.24468779295465684 4.795101606278038 18.239608871820383 4.664430865127124 1.5548102883757091 1.5548102883757091 0.0 0.0 0.43861391052531945 0.8986756019241242
49 22.277230102245298 15.445303526419533 5.160624807632924 4.711309174674172 1.570436391558065 1.570436391558065 0.0 -0.0 0.7611420715427216 0.6485851886434459
50 33.90458578215907 10.133508486255767 52.470136053933466 4.7586586190648195 1.5862195396882728 1.5862195396882728 0.0 0.0 0.5689873473401131 0.8223462765568174
51 59.055523516998875 22.435009334748575 40.25548343236874 4.806483933282983 1.6021613110943094 1.6021613110943094 0.0 -0.0 0.9816329176571261 0.1907794930592849
52 31.063021783784595 37.38532244883003 27.280335551732257 4.854789899899831 1.6182632999665951 1.6182632999665951 0.0 -0.0 0.8312938914163103 0.5558331279205367
53 9.35033808015099 4.5585135098632446 6.324735037333824 4.9035813495523 1.634527116517456 1.634527116517456 0.0 0.0 0.4937832216878833 0.8695850332081013
54 31.041103663190533 57.29194295195333 42.52294208387226 4.952863161426114 1.6509543871420351 1.6509543871420351 0.0 -0.0 0.7425013715714329 0.6698445440656666
55 21.787251286572317 44.545922128715624 9.705548442986988 4.952863161426114 1.6509543871420351 1.6509543871420351 0.0 -0.0 0.899222239431846 0.4374921303419936
56 37.00379632437089 15.83016056930796 19.652747586618094 5.0026402637434835 1.6675467545811558 1.6675467545811558 0.0 0.0 0.591041689671776 0.8066410112744902
57 53.57930616963786 57.3663107840664 52.64020415270477 5.0026402637434835 1.6675467545811558 1.6675467545811558 0.0 0.0 0.6906372933410847 0.7232013060320761
58 28.74226763107872 42.62284583283906 31.347109383276678 5.052917634256081 1.6843058780853568 1.6843058780853568 0.0 -0.0 0.9778925487455288 0.20910801779935065
59 30.959952142759505 50.899818103309585 27.058003802549308 5.052917634256081 1.6843058780853568 1.6843058780853568 0.0 -0.0 0.8334397726994561 0.5526103014626843
60 43.298186918365886 28.326594617987148 54.28290703385747 5.103700300742953 1.7012334335809711 1.7012334335809711 0.0 -0.0 0.8251393648538317 0.5649292243888745
61 5.886719852895913 41.739425668347415 36.5122886486116 5.103700300742953 1.7012334335809711 1.7012334335809711 0.0 -0.0 0.8342848482439009 0.5513336485202505
62 19.181697877217687 56.88585790732616 38.12482022889342 5.154993341512907 1.7183311138376243 1.7183311138376243 0.0 0.0 0.6993489688984815 0.7147803996337831
63 38.62843265302371 58.095354561842555 51.53833084936145 5.154993341512907 1.7183311138376243 1.7183311138376243 0.0 0.0 0.6638694557235675 0.747848477806363
64 41.389782192571076 35.80455475305875 40.79719552290936 5.206801885912928 1.7356006286376344 1.7356006286376344 0.0 0.0 0.5469534661185369 0.8371630103515794
65 20.00410094806874 17.35171207740558 60.396527401264024 5.206801885912928 1.7356006286376344 1.7356006286376344 0.0 0.0 0.534266604389083 0.8453160328744268
66 32.03689101173374 13.082986270759768 27.792002676723246 5.259131114840439 1.753043704946827 1.753043704946827 0.0 0.0 0.49259387534365895 0.8702593142126752
67 60.39794390302597 25.337756345149376 10.845010748938684 5.259131114840439 1.753043704946827 1.753043704946827 0.0 -0.0 0.7991221049958454 0.6011687461162707
68 40.079388763146795 34.59507608130729 26.95037030734428 5.311986261262155 1.7706620870873955 1.7706620870873955 0.0 -0.0 0.8113628171424923 0.5845428803420658
69 40.58659105350014 9.588310227583277 58.19891337658771 5.311986261262155 1.7706620870873955 1.7706620870873955 0.0 0.0 0.69974083585519 0.7143967823532522
70 6.501098948515717 48.19503578731718 25.32426073593635 5.365372610736667 1.7884575369122053 1.7884575369122053 0.0 -0.0 0.9226100212719841 0.3857340387475665
71 27.180284477423378 60.02182422606514 28.7541502480918 5.365372610736667 1.7884575369122053 1.7884575369122053 0.0 -0.0 0.8908476943010929 0.4543020862360491
72 11.809365394312389 49.33139276735698 8.62772673153346 5.419295501943367 1.80643183398113 1.80643183398113 0.0 -0.0 0.9180976465577227 0.39635427509384946
73 42.98227525034627 38.03633905839459 32.65562882235233 5.419295501943367 1.80643183398113 1.80643183398113 0.0 0.0 0.6852526383261238 0.7283054453092375
74 45.063166454454965 38.48721197256474 9.522245315516784 5.473760327216399 1.8245867757388032 1.8245867757388032 0.0 0.0 0.6622208999947843 0.7493086677799063
75 3.1715001227519437 53.79252436302643 29.601813366933335 5.473760327216399 1.8245867757388032 1.8245867757388032 0.0 0.0 0.6669694181073614 0.7450850926636016
76 47.794706175383595 9.072142864441957 32.740379417057866 5.528772533083562 1.8429241776945484 1.8429241776945484 0.0 0.0 0.4849872773235938 0.8745212066235144
77 17.171248090632066 43.140424142307744 23.86989434809612 5.528772533083562 1.8429241776945484 1.8429241776945484 0.0 -0.0 0.724549744492829 0.6892225096116464
78 5.850869071377965 12.342263678040439 8.091875738783218 5.584337620811432 1.8614458736038106 1.8614458736038106 0.0 0.0 0.646327957303847 0.7630597431442944
79 3.788809360728486 18.803532155116148 36.35792251820742 5.584337620811432 1.8614458736038106 1.8614458736038106 0.0 0.0 0.4210348644808628 0.9070444547493698
80 53.46675606024692 12.684471532761448 18.67761082404247 5.640461146955042 1.8801537156516517 1.8801537156516517 0.0 0.0 0.5786941501693628 0.8155446527074768
81 1.0403152600462886 44.54311758621685 31.379471747301338 5.640461146955042 1.8801537156516517 1.8801537156516517 0.0 0.0 0.683142879342022 0.730284743373632
82 8.778361120511065 12.353712902825361 60.20658746747496 5.6971487239136716 1.8990495746378697 1.8990495746378697 0.0 0.0 0.3480344086077516 0.937481760049257
83 24.242788069234408 54.52961610245089 60.4825827552442 5.6971487239136716 1.8990495746378697 1.8990495746378697 0.0 -0.0 0.8280938516825816 0.560589486884571
84 35.578307773627614 0.1972433948389778 8.328807510678836 5.754406020492305 1.918135340164121 1.918135340164121 0.0 -0.0 0.8521868438699086 0.5232375972109076
85 26.597275127400067 36.61734578510746 32.99498983648479 5.754406020492305 1.918135340164121 1.918135340164121 0.0 0.0 0.2683204071818837 0.9633297250109892
86 9.441866381869215 56.40945319676741 57.53524715158053 5.81223876246839 1.9374129208228172 1.9374129208228172 0.0 0.0 0.5717525694490604 0.8204261083902665
87 9.42898699321605 0.48733270194504813 44.581359656835964 5.81223876246839 1.9374129208228172 1.9374129208228172 0.0 -0.0 0.7407334016199733 0.6717990977401677
88 25.166576545546587 44.65797702910305 53.562961714782915 5.870652733164337 1.9568842443880905 1.9568842443880905 0.0 0.0 0.6524446383875427 0.7578363898885753
89 25.60986360118032 29.297752682737595 41.73895541075018 5.870652733164337 1.9568842443880905 1.9568842443880905 0.0 0.0 0.3815125934194192 0.9243636411404275
90 17.218901248482286 5.234524077990709 47.3152010957193 5.929653774025773 1.9765512580085614 1.9765512580085614 0.0 -0.0 0.7664413141092511 0.642314340511314
91 39.84827670870221 4.233309267514624 29.663884086547277 5.929653774025773 1.9765512580085614 1.9765512580085614 0.0 -0.0 0.7164030651197486 0.6976866404676452
92 47.99592287297568 21.646942408164193 42.0706828354125 5.989247785205935 1.9964159284019758 1.9964159284019758 0.0 0.0 0.3159382626609752 0.9487797500931208
93 16.844312629619683 44.08960974298435 41.59098526138698 5.989247785205935 1.9964159284019758 1.9964159284019758 0.0 -0.0 0.807675111463051 0.5896277760783901
94 60.3131374698252 12.087220131860185 44.072736283548444 6.049440726155721 2.0164802420519368 2.0164802420519368 0.0 0.0 0.5856043209472178 0.8105970511221638
95 44.94583687766161 17.050590928771324 55.80070639314491 6.049440726155721 2.0164802420519368 2.0164802420519368 0.0 -0.0 0.8283891439806925 0.5601530381377355
96 36.13788564127562 8.474744574645605 39.19933865669641 6.110238616219351 2.0367462054064807 2.0367462054064807 0.0 0.0 0.6380161188650698 0.7700230074928626
97 35.31130268318579 19.864187199132708 27.17258960265014 6.110238616219351 2.0367462054064807 2.0367462054064807 0.0 0.0 0.5652655734899162 0.8249089837231233
98 19.58562303686693 21.96561132475301 41.19085506435946 6.171647535236552 2.057215845078847 2.057215845078847 0.0 -0.0 0.9884337224668884 0.15165347437579585
99 50.841467710002746 31.561600276972563 10.13671308667005 6.171647535236552 2.057215845078847 2.057215845078847 0.0 0.0 0.644584962479319 0.7645326848117973
100 36.79689186416082 24.559558318617242 55.82184234758441 6.2336736241502395 2.077891208050085 2.077891208050085 0.0 -0.0 0.7665764345255346 0.6421530736748979
101 16.348353353304496 36.3425052456969 58.56054882891074 6.2336736241502395 2.077891208050085 2.077891208050085 0.0 -0.0 0.7486465484609144 0.6629693397718779
102 37.44047826160564 23.734609430462015 14.41492943702085 6.296323085621092 2.0987743618737102 2.0987743618737102 0.0 -0.0 0.764238184631255 0.644934102952793
103 27.137766686172537 26.492174165022835 11.210442207497257 6.296323085621092 2.0987743618737102 2.0987743618737102 0.0 -0.0 0.7262700822056904 0.6874094614514261
104 42.848980234935134 2.8328898189674154 43.13246943350538 6.359602184647596 2.119867394882498 2.119867394882498 0.0 0.0 0.6864264585310771 0.7271992278794606
105 20.98891498567126 55.684565929041945 7.772397631257283 6.359602184647596 2.119867394882498 2.119867394882498 0.0 -0.0 0.8498704758576332 0.5269916263713497
106 19.746561291894253 24.829096021899275 57.61198403735149 6.423517249192104 2.1411724163973687 2.1411724163973687 0.0 -0.0 0.793590538753224 0.6084521811953406
107 44.970212380996735 9.295369264262238 18.33552325025729 6.423517249192104 2.1411724163973687 2.1411724163973687 0.0 -0.0 0.8299364941277125 0.5578578812878792
108 55.42456655188479 5.7812375748962594 0.9404660453037398 6.488074670814545 2.1626915569381495 2.1626915569381495 0.0 -0.0 0.7596155095013813 0.650372414640225
109 4.9902692399572075 47.777103114503575 54.78430527264694 6.488074670814545 2.1626915569381495 2.1626915569381495 0.0 -0.0 0.746179639226726 0.6657446552571586
110 34.59769374677099 9.635730739976655 48.04428682271601 6.553280905310772 2.184426968436891 2.184426968436891 0.0 -0.0 0.7434755474029917 0.6687631198068729
111 33.34392672703287 53.90531631039921 18.476890850565063 6.553280905310772 2.184426968436891 2.184426968436891 0.0 -0.0 0.7635489887521677 0.6457499065238353
112 47.12264461444027 56.864432494045914 18.70529929440659 6.619142473358559 2.206380824452886 2.206380824452886 0.0 -0.0 0.925703395166632 0.3782502137170186
113 17.18679097544564 58.46247501143923 9.841606587695342 6.619142473358559 2.206380824452886 2.206380824452886 0.0 -0.0 0.7476030998596368 0.6641457709571461
114 51.466335498471544 20.3471000623882 31.35725036689107 6.685665961169746 2.228555320389916 2.228555320389916 0.0 -0.0 0.7095009508808979 0.7047044775642494
115 24.219236642059617 29.681553650044314 54.22957856770544 6.685665961169746 2.228555320389916 2.228555320389916 0.0 0.0 0.692332939305712 0.7215782016887105
116 16.62489956072058 16.578326249979284 48.956682724949 6.752858021148508 2.2509526737161423 2.2509526737161423 0.0 0.0 0.4838188577050026 0.8751681626573412
117 53.26985713947317 40.93792405486916 30.353166714400807 6.752858021148508 2.2509526737161423 2.2509526737161423 0.0 0.0 0.4072390243389004 0.9133216175343166
118 39.84000257102976 19.002049443395805 0.25631974136988855 6.82072537255663 2.273575124185545 2.273575124185545 0.0 -0.0 0.9854258972554679 0.17010526452245991
119 39.79584710994464 42.93533774771253 4.06885148332575 6.82072537255663 2.273575124185545 2.273575124185545 0.0 0.0 0.693566054094668 0.720393037589587
120 35.16174269175646 29.627993124921083 32.673685369945076 6.889274802186045 2.2964249340620166 2.2964249340620166 0.0 -0.0 0.8546373086497397 0.5192254526349123
121 58.18324951888928 44.28000232546619 53.41834536808972 6.889274802186045 2.2964249340620166 2.2964249340620166 0.0 -0.0 0.738138054050796 0.6746496966293722
122 53.0259164003155 26.388229730810206 57.12190193354867 6.9585131650367575 2.31950438834561 2.31950438834561 0.0 0.0 0.30497028615780525 0.9523618663936657
123 40.143161100600835 30.556329862139954 47.67950021957445 6.9585131650367575 2.31950438834561 2.31950438834561 0.0 -0.0 0.8240326158671573 0.5665423620411186
124 51.433604419069646 44.54293179289336 56.86367292008118 7.028447385002862 2.3428157950009467 2.3428157950009467 0.0 -0.0 0.7351480847541838 0.6779065521753388
125 44.95666781855021 40.22085381379618 50.974373156472545 7.028447385002862 2.3428157950009467 2.3428157950009467 0.0 0.0 0.6354145425399089 0.7721711980699606
126 30.560783436934724 6.568616349750379 42.62189202111557 7.099084455564417 2.3663614851881314 2.3663614851881314 0.0 -0.0 0.9631928649301144 0.2688112812880415
127 1.2440228311378183 35.3242980417791 41.973574439009425 7.099084455564417 2.3663614851881314 2.3663614851881314 0.0 0.0 0.6645731125154195 0.7472232451694524
128 10.290227191420934 49.01836930391535 53.53188911908206 7.170431440487363 2.390143813495786 2.390143813495786 0.0 -0.0 0.837305869343264 0.5467347447925007
129 40.721723060187486 60.12712091615084 7.37717002153227 7.170431440487363 2.390143813495786 2.390143813495786 0.0 0.0 0.6718759690179156 0.7406636768846148
130 34.8607049047909 7.4870892927982755 14.221419680712282 7.242495474529938 2.414165158176619 2.414165158176619 0.0 -0.0 0.8172568989423515 0.5762735124323614
131 8.568327760026905 24.164238176019836 44.53380555348594 7.242495474529938 2.414165158176619 2.414165158176619 0.0 0.0 0.5650588956672867 0.8250505708302167
132 24.562321143944434 9.439216927995314 56.93845329146235 7.315283764155301 2.4384279213850735 2.4384279213850735 0.0 0.0 0.5632303093681869 0.8262999568008076
133 23.68484746332492 46.41529942609825 39.10819539463354 7.315283764155301 2.4384279213850735 2.4384279213850735 0.0 0.0 0.7047758212396541 0.7094300823872436
134 57.65362917622108 46.89602655021368 46.87490159992246 7.388803588253056 2.4629345294176757 2.4629345294176757 0.0 -0.0 0.7457546235329385 0.6662207152882933
135 45.62426107029268 57.330653765708874 58.57856795329011 7.388803588253056 2.4629345294176757 2.4629345294176757 0.0 0.0 0.5807371118896761 0.8140911539097067
136 17.420600579087598 56.26152812122817 0.09114741511995914 7.463062298867151 2.4876874329557133 2.4876874329557133 0.0 -0.0 0.7765636880913803 0.6300387593933514
137 8.861582898046333 44.948876680036015 27.187444343575105 7.463062298867151 2.4876874329557133 2.4876874329557133 0.0 -0.0 0.9207785641385271 0.39008567754147583
138 44.700830462133226 26.66352780740936 21.951030391179565 7.538067321930312 2.512689107310079 2.512689107310079 0.0 0.0 0.5933031767685688 0.8049790931672228
139 59.382895283809354 20.189818953922746 5.7532958856463985 7.538067321930312 2.512689107310079 2.512689107310079 0.0 0.0 0.36293328461656904 0.9318151270061183
140 5.838098948533702 11.226355846333123 40.973477598703646 7.6138261580074635 2.537942052669148 2.537942052669148 0.0 0.0 0.5657838974393875 0.8245535649054563
141 5.773620109683804 6.059790767157451 49.71350817242482 7.6138261580074635 2.537942052669148 2.537942052669148 0.0 0.0 0.5898626798291705 0.8075035720941112
142 9.764212307337372 39.804991621052345 6.884932506129009 7.690346383045129 2.5634487943484072 2.5634487943484072 0.0 0.0 0.494526605223718 0.8691624915548904
143 27.505925431870008 4.945426533700736 0.7020558172574959 7.690346383045129 2.5634487943484072 2.5634487943484072 0.0 0.0 0.6621201748514545 0.7493976741721844
144 12.588775963879103 37.62232683472008 48.98645448738767 7.767635649129941 2.589211883043321 2.589211883043321 0.0 -0.0 0.8358120424685423 0.5490156916378287
145 10.514582923375835 30.18746588283259 20.781703158684852 7.767635649129941 2.589211883043321 2.589211883043321 0.0 -0.0 0.7380766977143534 0.6747168208152773
146 26.469974453665344 52.19172027003612 49.44654599922428 7.845701685252631 2.6152338950842107 2.6152338950842107 0.0 0.0 0.5600689403365469 0.8284460043179022
147 38.086709057191214 21.186029257229944 35.292168991013256 7.845701685252631 2.6152338950842107 2.6152338950842107 0.0 -0.0 0.8053653384335279 0.5927787712543771
148 5.757798152111745 28.313349295873063 55.419857720624094 7.9245522980819585 2.641517432693984 2.641517432693984 0.0 -0.0 0.9475491048281723 0.31961022189430877
149 45.427922919163144 1.7333279475509256 26.446783155676375 7.9245522980819585 2.641517432693984 2.641517432693984 0.0 -0.0 0.8855269061838191 0.46458809543994295
150 27.441904144904512 11.196925758286412 17.666115415306347 8.004195372744926 2.6680651242483107 2.6680651242483107 0.0 -0.0 0.8997163709941051 0.43647502994466686
151 33.410869537692925 45.97689635785103 39.656785784016016 8.004195372744926 2.6680651242483107 2.6680651242483107 0.0 0.0 0.6949034215940625 0.7191030765174521
152 0.19725074241549687 57.009255792085575 3.7798045813868706 8.08463887361536 2.6948796245384314 2.6948796245384314 0.0 0.0 0.6496096252583186 0.7602679361723385
153 30.503751917682926 8.36201218273698 6.963797650299764 8.08463887361536 2.6948796245384314 2.6948796245384314 0.0 0.0 0.6980264017745981 0.7160720232110785
154 49.52161474093481 5.89797541078448 4.801581737047258 8.165890845110274 2.721963615036751 2.721963615036751 0.0 -0.0 0.9126309719920443 0.4087844284716046
155 20.036188481645937 34.008947223247525 7.571693972220809 8.165890845110274 2.721963615036751 2.721963615036751 0.0 0.0 0.34897032679986184 0.9371337743423815
156 35.288607269247066 36.54209976105151 47.542355689117656 8.247959412494687 2.7493198041648905 2.7493198041648905 0.0 0.0 0.6995675014656925 0.7145665195718649
157 19.773714533019128 25.48255704649178 47.61490862129327 8.247959412494687 2.7493198041648905 2.7493198041648905 0.0 0.0 0.63565327495599 0.7719746848425306
158 48.69591295407084 58.9081192179336 46.29753207055613 8.330852782693722 2.7769509275645787 2.7769509275645787 0.0 -0.0 0.7426985308561326 0.6696259345814963
159 18.135320216341075 13.453815428526518 10.267020126799881 8.330852782693722 2.7769509275645787 2.7769509275645787 0.0 0.0 0.4891044501540252 0.8722252213961303
160 49.76608602465761 43.74129354028361 17.189590459693324 8.414579245113387 2.804859748371158 2.804859748371158 0.0 0.0 0.6466947184788655 0.7627489371290798
161 32.0296652964366 14.304674876775684 35.86568444341835 8.414579245113387 2.804859748371158 2.804859748371158 0.0 0.0 0.6377575578887067 0.7702371695496348
162 12.52406012616514 11.91304674273718 17.705177143662514 8.499147172469785 2.8330490574899 2.8330490574899 0.0 0.0 0.6701572236966805 0.7422191694689361
163 41.560071433699534 4.092486595073507 37.145344823258135 8.499147172469785 2.8330490574899 2.8330490574899 0.0 -0.0 0.7797338016261434 0.6261111711203069
164 45.86349275704919 50.429137753232645 35.502947286785215 8.584565021625991 2.86152167387533 2.86152167387533 0.0 0.0 0.6966086930688543 0.7174512727293072
165 54.71069831113877 31.724278753157716 24.425735035288678 8.584565021625991 2.86152167387533 2.86152167387533 0.0 -0.0 0.8994069955971553 0.43711217813153935
6_T 29.326132178706665 -0.059052966188765765 19.598276451388145 3.0647494661789905 1.0215831553930028 1.0215831553930028 0.0 0.0 0.643710445538684 0.7652691437033046
7_T 34.7493134115916 -0.3495229535344464 29.53476906720334 3.095550710385204 1.031850236795073 1.031850236795073 0.0 -0.0 0.7603958793842515 0.6494598575858641
9_T 47.88788389963754 -1.743575364624256 50.71051236885598 3.1580849828557693 1.052694994285258 1.052694994285258 0.0 -0.0 0.7176002965020949 0.6964551776389529
10_L -0.5784134835530779 5.017503324596189 12.032586334626329 3.1898242645994666 1.0632747548664931 1.0632747548664931 0.0 0.0 0.38534345666417513 0.9227732226317065
12_L -1.9608239946686865 8.356590379548527 25.118531533635217 3.2542629891942014 1.0847543297314042 1.0847543297314042 0.0 0.0 0.2746680171135514 0.9615391205639581
20_T 30.47118417178501 -1.6739106557626258 34.544880140155186 3.525301011007372 1.1751003370024617 1.1751003370024617 0.0 -0.0 0.7861857262579329 0.6179902942832407
24_B 30.191627568728133 64.09617983693491 50.72069615409505 3.669171274527779 1.2230570915092587 1.2230570915092587 0.0 0.0 0.5255054740936084 0.8507902189715464
25_T 19.089918039836007 -2.678182637938633 55.69395916443615 3.706047058897236 1.2353490196323977 1.2353490196323977 0.0 0.0 0.6637035342538496 0.7479957343587923
27_R 61.03900618862381 12.183246350203882 21.385756412273206 3.78091417568911 1.2603047252297155 1.2603047252297155 0.0 -0.0 0.7297620279401082 0.6837012378054764
30_B 17.865741162180218 64.40224942913693 29.343670400743264 3.8960601548279756 1.2986867182760056 1.2986867182760056 0.0 -0.0 0.8433777540022546 0.5373210995802349
32_L -0.5417551720110794 31.07130921078642 34.09760390793283 3.9747657907803404 1.3249219302601276 1.3249219302601276 0.0 0.0 0.6353234605105568 0.7722461398575527
38_B 21.09814528886587 64.29853200102355 19.810958525637993 4.220551580608835 1.406850526869605 1.406850526869605 0.0 0.0 0.5145463711011363 0.8574625542766586
48_R 61.144687792954656 4.795101606278038 18.239608871820383 4.664430865127124 1.5548102883757091 1.5548102883757091 0.0 0.0 0.43861391052531945 0.8986756019241242
51_L -1.8444764830011238 22.435009334748575 40.25548343236874 4.806483933282983 1.6021613110943094 1.6021613110943094 0.0 -0.0 0.9816329176571261 0.1907794930592849
54_T 31.041103663190533 -3.6080570480466676 42.52294208387226 4.952863161426114 1.6509543871420351 1.6509543871420351 0.0 -0.0 0.7425013715714329 0.6698445440656666
57_T 53.57930616963786 -3.533689215933599 52.64020415270477 5.0026402637434835 1.6675467545811558 1.6675467545811558 0.0 0.0 0.6906372933410847 0.7232013060320761
62_T 19.181697877217687 -4.014142092673836 38.12482022889342 5.154993341512907 1.7183311138376243 1.7183311138376243 0.0 0.0 0.6993489688984815 0.7147803996337831
63_T 38.62843265302371 -2.8046454381574435 51.53833084936145 5.154993341512907 1.7183311138376243 1.7183311138376243 0.0 0.0 0.6638694557235675 0.747848477806363
65_F 20.00410094806874 17.35171207740558 -0.5034725987359749 5.206801885912928 1.7356006286376344 1.7356006286376344 0.0 0.0 0.534266604389083 0.8453160328744268
67_L -0.5020560969740302 25.337756345149376 10.845010748938684 5.259131114840439 1.753043704946827 1.753043704946827 0.0 -0.0 0.7991221049958454 0.6011687461162707