ITEM: TIMESTEP
136
ITEM: NUMBER OF ATOMS
189
ITEM: BOX BOUNDS ff ff ff
0 60.9
60.9 0
60.9 0
ITEM: ATOMS id x y z AsphericalShapeX AsphericalShapeY AsphericalShapeZ OrientationX OrientationY OrientationZ OrientationW
1 37.94857684404111 6.285288531981106 10.667748463819546 0.9670540976282508 0.32235136587608226 0.32235136587608226 0.0 -0.0 0.7863642711635499 0.6177630881150306
2 25.410280097135963 2.8041295708419445 26.922260866703883 0.976773152888839 0.3255910509629476 0.3255910509629476 0.0 -0.0 0.8896314041555925 0.4566792799549252
3 15.282344536917915 20.743531097701116 52.2156109702226 0.9865898862787061 0.3288632954262354 0.3288632954262354 0.0 0.0 0.631512325711268 0.7753658378305981
4 33.378057781482326 37.06032730961577 29.95138562589527 0.9965052794793532 0.33216842649311745 0.33216842649311745 0.0 0.0 0.5765741652112841 0.8170448164029381
5 7.527880035066224 22.715742400557453 37.112162340615285 1.0065203240383818 0.33550677467945905 0.33550677467945905 0.0 -0.0 0.8873914294477543 0.4610167577677315
6 25.787902792313602 19.284820058138934 18.44925110192233 1.0166360214685748 0.3388786738228581 0.3388786738228581 0.0 0.0 0.643710445538684 0.7652691437033046
7 54.853977087807635 3.6370504739127583 18.950697484098608 1.0268533833481184 0.3422844611160391 0.3422844611160391 0.0 -0.0 0.7603958793842515 0.6494598575858641
8 48.96310264446826 38.89452134684738 0.7355324249486306 1.0371734314217078 0.34572447714056903 0.34572447714056903 0.0 -0.0 0.7854601334426244 0.6189122545016335
9 49.492646060660945 1.3226329893314506 0.05347731751924631 1.047597197702754 0.3491990659009194 0.3491990659009194 0.0 -0.0 0.7176002965020949 0.6964551776389529
10 30.71899980065107 54.813016137911916 13.252624286190741 1.0581257245765763 0.35270857485885737 0.35270857485885737 0.0 0.0 0.38534345666417513 0.9227732226317065
11 29.233887867442366 57.679628925847936 58.157857935323314 1.0687600649046278 0.3562533549682095 0.3562533549682095 0.0 0.0 0.49983922045674145 0.866118209999765
12 17.373452171831854 54.16040578576218 16.46749064818138 1.0795012821298056 0.3598337607099336 0.3598337607099336 0.0 0.0 0.2746680171135514 0.9615391205639581
13 27.854180043322486 53.04695761981342 50.69512407400223 1.0903504503827801 0.36345015012759324 0.36345015012759324 0.0 -0.0 0.7886508549344257 0.614841303924191
14 16.823204012341062 52.94001514650308 26.93756558569885 1.1013086545894237 0.36710288486314213 0.36710288486314213 0.0 -0.0 0.7750680292508737 0.6318777967559605
15 19.135886580868004 0.13793057187077606 28.85583112566444 1.1123769905792877 0.3707923301930964 0.3707923301930964 0.0 0.0 0.6340811782098568 0.7732664866913604
16 18.346131388863842 41.65329033154486 46.788012406212786 1.123556565195194 0.3745188550650646 0.3745188550650646 0.0 -0.0 0.7629176367612683 0.6464956918020424
17 36.504362669770664 48.3510650925351 41.825063305572336 1.1348484964039203 0.3782828321346409 0.3782828321346409 0.0 0.0 0.6579222258448839 0.7530858813836
18 1.2188734987150407 46.12131021242183 54.94227953159635 1.146253913407998 0.38208463780266705 0.38208463780266705 0.0 0.0 0.506211649243881 0.8624092799650234
19 12.663193945997929 5.487694674708828 38.034186883211675 1.157773956758627 0.38592465225287537 0.38592465225287537 0.0 0.0 0.6434542777811493 0.7654845474633303
20 16.208236675985614 55.12473106414867 2.2042048153768907 1.1694097784697517 0.38980325948991645 0.38980325948991645 0.0 -0.0 0.7861857262579329 0.6179902942832407
21 30.164986494574794 32.39078760734282 45.229662314389614 1.1811625421332308 0.39372084737774427 0.39372084737774427 0.0 0.0 0.6069811502172251 0.7947162281474907
22 39.36518901855466 1.5278002178361216 7.709200885575338 1.193033423035229 0.3976778076784105 0.3976778076784105 0.0 -0.0 0.8910647246123514 0.45387625687131333
23 37.32322964035698 50.43271410476664 42.231569716889275 1.2050236082737305 0.4016745360912435 0.4016745360912435 0.0 -0.0 0.7582829367961579 0.651925599868416
24 23.098610027590617 56.60936085258366 47.342333703285206 1.217134296877252 0.4057114322924161 0.4057114322924161 0.0 0.0 0.5255054740936084 0.8507902189715464
25 3.8978234134848293 12.281849154083545 25.410091278661515 1.2293666999247355 0.4097888999749117 0.4097888999749117 0.0 0.0 0.6637035342538496 0.7479957343587923
26 54.93187796347063 27.8616373814967 8.169501755461532 1.2417220406666951 0.41390734688889863 0.41390734688889863 0.0 0.0 0.5361151400853296 0.8441448670526212
27 57.95110917023434 35.85547971159426 6.432843778516656 1.2542015546474898 0.41806718488249506 0.41806718488249506 0.0 -0.0 0.7297620279401082 0.6837012378054764
28 54.069574300122504 12.579915935947561 34.031981539550536 1.2668064898289173 0.4222688299429729 0.4222688299429729 0.0 -0.0 0.9828164757017253 0.18458541407500267
29 42.696863663037576 39.70981982863902 23.235421439628663 1.279538106715008 0.4265127022383349 0.4265127022383349 0.0 -0.0 0.8740853421614372 0.4857723897243679
30 15.267467789548537 15.175464592676548 34.38919060093902 1.2923976784780535 0.43079922615934974 0.43079922615934974 0.0 -0.0 0.8433777540022546 0.5373210995802349
31 32.547737714699174 45.01484772251477 42.63969648142302 1.3053864910859496 0.43512883036198197 0.43512883036198197 0.0 0.0 0.6952778540174372 0.7187410560924617
32 21.52820205705516 40.799911567004436 46.048158705839015 1.31850584343078 0.43950194781025786 0.43950194781025786 0.0 0.0 0.6353234605105568 0.7722461398575527
33 27.482983963675302 15.569349931498367 20.02649600102929 1.331757047458709 0.4439190158195702 0.4439190158195702 0.0 0.0 0.6411270229476993 0.7674347792784871
34 6.447613903702344 21.18572914312154 4.649903477644854 1.3451414283011864 0.44838047610039394 0.44838047610039394 0.0 -0.0 0.7453722743584635 0.6666484625480594
35 29.7575899738812 28.512734736884124 48.437152793505796 1.3586603244074462 0.45288677480248163 0.45288677480248163 0.0 -0.0 0.7109313362059317 0.7032614273514853
36 19.263227845370494 46.20268777033119 30.91346652069396 1.3723150876783763 0.4574383625594565 0.4574383625594565 0.0 -0.0 0.739632735620696 0.6730107104632479
37 59.19981249127065 45.915742309823855 52.486073691289874 1.3861070836016691 0.4620356945338883 0.4620356945338883 0.0 0.0 0.5163603530767541 0.8563714064414165
38 2.9136032265671954 17.9851258190216 27.544886898610308 1.4000376913884103 0.4666792304628036 0.4666792304628036 0.0 0.0 0.5145463711011363 0.8574625542766586
39 8.35699030477778 26.681064026700163 2.8408305554576767 1.4141083041109936 0.4713694347036647 0.4713694347036647 0.0 0.0 0.5880831456971182 0.8088004783300898
40 51.98668180055434 58.80060062496896 23.140902394096482 1.428320328842417 0.4761067762808064 0.4761067762808064 0.0 -0.0 0.8608342640850161 0.5088854191045453
41 5.89301337740676 31.574370047199185 49.00573801762781 1.4426751867970007 0.48089172893233256 0.48089172893233256 0.0 0.0 0.5813114541301716 0.8136811373609846
42 46.64087452251338 16.40169269493402 28.566970072710784 1.4571743134724955 0.48572477115749846 0.48572477115749846 0.0 0.0 0.6858728758951139 0.7277213739552836
43 2.090787596649454 58.47037019068598 36.446783461246504 1.4718191587936544 0.4906063862645499 0.4906063862645499 0.0 -0.0 0.8971229945165649 0.4417808650333688
44 28.175869005714624 36.090031069284834 31.178307259629626 1.4866111872572048 0.4955370624190675 0.4955370624190675 0.0 -0.0 0.7662793896249596 0.6425075073771507
45 40.948652515877924 4.278759531418205 9.751803667604461 1.5015518780783321 0.5005172926927766 0.5005172926927766 0.0 -0.0 0.8021859139948743 0.5970743332184094
46 17.845149605179287 49.919061387216544 18.103377447688796 1.51664272533857 0.5055475751128569 0.5055475751128569 0.0 0.0 0.6689296931602822 0.7433256793683982
47 39.774512851573604 3.9090367193038635 30.25086052785599 1.5318852381352046 0.5106284127117351 0.5106284127117351 0.0 -0.0 0.8121614142020023 0.5834328044268712
48 34.42400850385131 25.87501780867246 29.75235552105226 1.5472809407322374 0.5157603135774134 0.5157603135774134 0.0 0.0 0.43861391052531945 0.8986756019241242
49 19.382132395926753 26.99228163386525 0.37369766281117456 1.562831372712741 0.5209437909042485 0.5209437909042485 0.0 -0.0 0.7611420715427216 0.6485851886434459
50 27.800499418885618 50.25551784600186 52.111213164887445 1.5785380891328895 0.5261793630442949 0.5261793630442949 0.0 0.0 0.5689873473401131 0.8223462765568174
51 48.40298213839791 35.58285235445969 42.512486151917244 1.5944026606773933 0.5314675535591303 0.5314675535591303 0.0 -0.0 0.9816329176571261 0.1907794930592849
52 13.5547669409175 58.630870312833174 45.81955327227386 1.6104266738166415 0.5368088912722165 0.5368088912722165 0.0 -0.0 0.8312938914163103 0.5558331279205367
53 31.85123219810658 21.356730968760612 58.96414224599587 1.626611730965307 0.5422039103217662 0.5422039103217662 0.0 0.0 0.4937832216878833 0.8695850332081013
54 18.814762406864286 29.154789349321415 24.17567752798008 1.642959450642574 0.5476531502141906 0.5476531502141906 0.0 -0.0 0.7425013715714329 0.6698445440656666
55 16.252541172800704 47.41634950949388 4.56435213276206 1.642959450642574 0.5476531502141906 0.5476531502141906 0.0 -0.0 0.899222239431846 0.4374921303419936
56 37.42481867785882 27.645041053577753 50.405855785951665 1.659471467634038 0.5531571558780155 0.5531571558780155 0.0 0.0 0.591041689671776 0.8066410112744902
57 47.35163175156327 12.46110284654495 41.586196679466745 1.659471467634038 0.5531571558780155 0.5531571558780155 0.0 0.0 0.6906372933410847 0.7232013060320761
58 34.86378935645946 35.58663512069185 27.113617197461096 1.6761494331551774 0.5587164777183908 0.5587164777183908 0.0 -0.0 0.9778925487455288 0.20910801779935065
59 31.778817124256868 40.94741559319084 54.18856674240957 1.6761494331551774 0.5587164777183908 0.5587164777183908 0.0 -0.0 0.8334397726994561 0.5526103014626843
60 27.199082544096896 28.378985725957055 25.49134237017608 1.6929950150164144 0.5643316716721382 0.5643316716721382 0.0 -0.0 0.8251393648538317 0.5649292243888745
61 29.2861034615053 22.950067860187396 52.59397342669437 1.6929950150164144 0.5643316716721382 0.5643316716721382 0.0 -0.0 0.8342848482439009 0.5513336485202505
62 56.291302877016406 60.70213593159031 32.36712151235873 1.710009897789988 0.5700032992633317 0.5700032992633317 0.0 0.0 0.6993489688984815 0.7147803996337831
63 32.352298802961094 40.25576652310277 15.38874725003545 1.710009897789988 0.5700032992633317 0.5700032992633317 0.0 0.0 0.6638694557235675 0.747848477806363
64 19.6857880883444 50.40329845039625 9.8355400867106 1.7271957829783622 0.575731927659455 0.575731927659455 0.0 0.0 0.5469534661185369 0.8371630103515794
65 5.195801490035599 59.106852873715496 27.473392850133976 1.7271957829783622 0.575731927659455 0.575731927659455 0.0 0.0 0.534266604389083 0.8453160328744268
66 45.32398692530927 18.683359177004494 21.753243895715354 1.7445543891843718 0.5815181297281234 0.5815181297281234 0.0 0.0 0.49259387534365895 0.8702593142126752
67 0.2975544245622903 57.896745667131114 4.256815203077718 1.7445543891843718 0.5815181297281234 0.5815181297281234 0.0 -0.0 0.7991221049958454 0.6011687461162707
68 18.52232343173312 53.94684741248054 44.40979730303289 1.7620874522830912 0.5873624840943605 0.5873624840943605 0.0 -0.0 0.8113628171424923 0.5845428803420658
69 45.25100336966887 55.795940337345144 14.161365864097839 1.7620874522830912 0.5873624840943605 0.5873624840943605 0.0 0.0 0.69974083585519 0.7143967823532522
70 27.549398371157842 9.968956220600816 20.358355263018648 1.7797967255954428 0.593265575198483 0.593265575198483 0.0 -0.0 0.9226100212719841 0.3857340387475665
71 55.4325359026943 53.18400848560657 53.16729541748696 1.7797967255954428 0.593265575198483 0.593265575198483 0.0 -0.0 0.8908476943010929 0.4543020862360491
72 52.22150356073521 7.907391713683616 9.875343788627944 1.7976839800635354 0.5992279933545125 0.5992279933545125 0.0 -0.0 0.9180976465577227 0.39635427509384946
73 58.0046330135192 46.11608622271505 39.845219486731 1.7976839800635354 0.5992279933545125 0.5992279933545125 0.0 0.0 0.6852526383261238 0.7283054453092375
74 13.656408812608307 12.593696662833992 8.812823905518663 1.8157510044277023 0.6052503348092364 0.6052503348092364 0.0 0.0 0.6622208999947843 0.7493086677799063
75 44.1714298696181 19.80169303650228 6.681977160830521 1.8157510044277023 0.6052503348092364 0.6052503348092364 0.0 0.0 0.6669694181073614 0.7450850926636016
76 3.2509743607593826 44.79092946789675 10.034667206266812 1.8339996054054573 0.6113332018018167 0.6113332018018167 0.0 0.0 0.4849872773235938 0.8745212066235144
77 54.579177431695875 59.321700706972486 20.825526839420704 1.8339996054054573 0.6113332018018167 0.6113332018018167 0.0 -0.0 0.724549744492829 0.6892225096116464
78 55.71926304137146 19.482382366157907 59.440917310599175 1.852431607872073 0.6174772026240244 0.6174772026240244 0.0 0.0 0.646327957303847 0.7630597431442944
79 9.887511700797123 4.937687034482361 11.218648928681969 1.852431607872073 0.6174772026240244 0.6174772026240244 0.0 0.0 0.4210348644808628 0.9070444547493698
80 11.173204130247072 54.88585913634792 28.582910294714516 1.8710488550431805 0.6236829516810605 0.6236829516810605 0.0 0.0 0.5786941501693628 0.8155446527074768
81 7.0055175561963345 28.82910103496559 43.11481609446484 1.8710488550431805 0.6236829516810605 0.6236829516810605 0.0 0.0 0.683142879342022 0.730284743373632
82 57.347467657818854 55.628701688482415 48.74528086470257 1.8898532086590119 0.6299510695530018 0.6299510695530018 0.0 0.0 0.3480344086077516 0.937481760049257
83 19.178865293292855 24.615234780669333 60.776504402552035 1.8898532086590119 0.6299510695530018 0.6299510695530018 0.0 -0.0 0.8280938516825816 0.560589486884571
84 7.623255723432977 17.383162143895955 50.59729984664646 1.9088465491705853 0.6362821830568625 0.6362821830568625 0.0 -0.0 0.8521868438699086 0.5232375972109076
85 0.9184249613705736 39.767342367091366 9.392646079045285 1.9088465491705853 0.6362821830568625 0.6362821830568625 0.0 0.0 0.2683204071818837 0.9633297250109892
86 5.663861761196952 21.700909399918892 1.5788938514134137 1.9280307759277866 0.6426769253092629 0.6426769253092629 0.0 0.0 0.5717525694490604 0.8204261083902665
87 0.6632328549036811 51.45992051388485 44.52134063048117 1.9280307759277866 0.6426769253092629 0.6426769253092629 0.0 -0.0 0.7407334016199733 0.6717990977401677
88 20.334865334791473 35.35546252531753 6.300860005509953 1.9474078073692795 0.6491359357897577 0.6491359357897577 0.0 0.0 0.6524446383875427 0.7578363898885753
89 17.426262324537753 13.722261457531074 6.272108052279888 1.9474078073692795 0.6491359357897577 0.6491359357897577 0.0 0.0 0.3815125934194192 0.9243636411404275
90 42.17726876989456 56.10318850682587 38.164753782783535 1.966979581214345 0.6556598604047843 0.6556598604047843 0.0 -0.0 0.7664413141092511 0.642314340511314
91 8.714891717013732 20.95639571016734 35.23280256382657 1.966979581214345 0.6556598604047843 0.6556598604047843 0.0 -0.0 0.7164030651197486 0.6976866404676452
92 24.046971470893467 50.76618099685142 37.34187991299257 1.9867480546567056 0.6622493515522329 0.6622493515522329 0.0 0.0 0.3159382626609752 0.9487797500931208
93 18.243822766163525 12.00395624121984 22.092715994456555 1.9867480546567056 0.6622493515522329 0.6622493515522329 0.0 -0.0 0.807675111463051 0.5896277760783901
94 31.21903264479717 17.01736099624661 57.991213425405334 2.0067152045601495 0.6689050681867134 0.6689050681867134 0.0 0.0 0.5856043209472178 0.8105970511221638
95 34.29523709060791 33.15288700555131 58.338912663691325 2.0067152045601495 0.6689050681867134 0.6689050681867134 0.0 -0.0 0.8283891439806925 0.5601530381377355
96 29.05306320813682 31.22239706932416 39.31195614436335 2.026883027656317 0.675627675885436 0.675627675885436 0.0 0.0 0.6380161188650698 0.7700230074928626
97 21.13221044381423 38.64385159445295 8.017637492383486 2.026883027656317 0.675627675885436 0.675627675885436 0.0 0.0 0.5652655734899162 0.8249089837231233
98 19.405500384156408 12.3146351571301 26.38688459631492 2.0472535407443266 0.6824178469147756 0.6824178469147756 0.0 -0.0 0.9884337224668884 0.15165347437579585
99 52.423441296379984 29.81339281952155 2.177814660681203 2.0472535407443266 0.6824178469147756 0.6824178469147756 0.0 0.0 0.644584962479319 0.7645326848117973
100 46.11346364027399 36.19219168604535 50.9371032521173 2.0678287808924556 0.6892762602974853 0.6892762602974853 0.0 -0.0 0.7665764345255346 0.6421530736748979
101 31.35007062317757 46.99302646457472 3.9119619483670043 2.0678287808924556 0.6892762602974853 0.6892762602974853 0.0 -0.0 0.7486465484609144 0.6629693397718779
102 51.6802822206041 36.302622335828424 25.374590273560557 2.0886108056418844 0.6962036018806284 0.6962036018806284 0.0 -0.0 0.764238184631255 0.644934102952793
103 30.3560252119037 20.360096765683355 25.664815842553665 2.0886108056418844 0.6962036018806284 0.6962036018806284 0.0 -0.0 0.7262700822056904 0.6874094614514261
104 8.49546818887984 38.598921904728144 23.332315336916718 2.1096016932123796 0.7032005644041268 0.7032005644041268 0.0 0.0 0.6864264585310771 0.7271992278794606
105 4.75932839475425 52.6391062871254 17.154156681643318 2.1096016932123796 0.7032005644041268 0.7032005644041268 0.0 -0.0 0.8498704758576332 0.5269916263713497
106 4.62835027252255 57.03498019243936 48.04721765274682 2.13080354271021 0.7102678475700706 0.7102678475700706 0.0 -0.0 0.793590538753224 0.6084521811953406
107 47.02259988741143 50.725728249333315 22.89447854299947 2.13080354271021 0.7102678475700706 0.7102678475700706 0.0 -0.0 0.8299364941277125 0.5578578812878792
108 58.23079405422196 35.54585779155813 34.4432619953685 2.152218474337979 0.7174061581126623 0.7174061581126623 0.0 -0.0 0.7596155095013813 0.650372414640225
109 39.133694297063855 36.90795956403765 35.139031998862514 2.152218474337979 0.7174061581126623 0.7174061581126623 0.0 -0.0 0.746179639226726 0.6657446552571586
110 30.590813539780928 52.73322451864133 46.045092648166744 2.1738486296067068 0.7246162098689042 0.7246162098689042 0.0 -0.0 0.7434755474029917 0.6687631198068729
111 36.14750775104119 46.8546365137783 8.244231923540356 2.1738486296067068 0.7246162098689042 0.7246162098689042 0.0 -0.0 0.7635489887521677 0.6457499065238353
112 45.66038780675384 46.073326722318065 2.9128779491433043 2.1956961715499483 0.7318987238499808 0.7318987238499808 0.0 -0.0 0.925703395166632 0.3782502137170186
113 1.79579620377606 34.98892916687787 32.20820130079456 2.1956961715499483 0.7318987238499808 0.7318987238499808 0.0 -0.0 0.7476030998596368 0.6641457709571461
114 7.885145263806698 35.21378886297408 32.270655934517436 2.2177632849400863 0.7392544283133625 0.7392544283133625 0.0 -0.0 0.7095009508808979 0.7047044775642494
115 45.00885456634467 0.17374433068865613 23.790514145877687 2.2177632849400863 0.7392544283133625 0.7392544283133625 0.0 0.0 0.692332939305712 0.7215782016887105
116 11.429867691439295 28.496319746879145 49.15945056609201 2.2400521765068686 0.7466840588356258 0.7466840588356258 0.0 0.0 0.4838188577050026 0.8751681626573412
117 37.12804383410196 55.04183828830955 5.7722845750738045 2.2400521765068686 0.7466840588356258 0.7466840588356258 0.0 0.0 0.4072390243389004 0.9133216175343166
118 37.99279813821731 0.7519728405254347 5.716754756291173 2.262565075158015 0.7541883583860065 0.7541883583860065 0.0 -0.0 0.9854258972554679 0.17010526452245991
119 28.535620381204097 10.564542511780273 60.23639014373871 2.262565075158015 0.7541883583860065 0.7541883583860065 0.0 0.0 0.693566054094668 0.720393037589587
120 4.610837197199176 39.87110884235047 53.043848926848284 2.285304232202155 0.7617680774007198 0.7617680774007198 0.0 -0.0 0.8546373086497397 0.5192254526349123
121 12.81617862737469 40.047100074723296 3.9914865506494 2.285304232202155 0.7617680774007198 0.7617680774007198 0.0 -0.0 0.738138054050796 0.6746496966293722
122 40.26316066476392 6.42102518724011 52.56512685504295 2.308271921573958 0.7694239738579842 0.7694239738579842 0.0 0.0 0.30497028615780525 0.9523618663936657
123 59.58435433217089 29.99349479163203 2.706297149551185 2.308271921573958 0.7694239738579842 0.7694239738579842 0.0 -0.0 0.8240326158671573 0.5665423620411186
124 38.75136268636426 23.301488986729158 2.7014068568467526 2.331470440061465 0.7771568133538189 0.7771568133538189 0.0 -0.0 0.7351480847541838 0.6779065521753388
125 57.313883677925396 13.254725865311023 14.096556809822886 2.331470440061465 0.7771568133538189 0.7771568133538189 0.0 0.0 0.6354145425399089 0.7721711980699606
126 18.56565036928279 9.602439449094092 21.360804855072914 2.3549021075358794 0.7849673691786249 0.7849673691786249 0.0 -0.0 0.9631928649301144 0.2688112812880415
127 0.7284451063989628 33.53010780984449 44.3861498002058 2.3549021075358794 0.7849673691786249 0.7849673691786249 0.0 0.0 0.6645731125154195 0.7472232451694524
128 20.80616664704806 1.996297615037612 41.90312768235499 2.3785692671834724 0.7928564223944888 0.7928564223944888 0.0 -0.0 0.837305869343264 0.5467347447925007
129 54.940282171169514 0.5801682200718256 36.80503424313393 2.3785692671834724 0.7928564223944888 0.7928564223944888 0.0 0.0 0.6718759690179156 0.7406636768846148
130 42.18803221032088 41.00074894203396 17.28429840716091 2.4024742857399284 0.8008247619133096 0.8008247619133096 0.0 -0.0 0.8172568989423515 0.5762735124323614
131 50.04128474192572 49.965882589584275 37.33763573042039 2.4024742857399284 0.8008247619133096 0.8008247619133096 0.0 0.0 0.5650588956672867 0.8250505708302167
132 21.620928847752936 24.073314715210337 50.30295475079929 2.4266195537270336 0.8088731845756792 0.8088731845756792 0.0 0.0 0.5632303093681869 0.8262999568008076
133 47.83836116421739 1.4292158886412467 24.804564249193056 2.4266195537270336 0.8088731845756792 0.8088731845756792 0.0 0.0 0.7047758212396541 0.7094300823872436
134 15.670294363443514 17.234142638241295 40.341005649186414 2.4510074856917035 0.8170024952305673 0.8170024952305673 0.0 -0.0 0.7457546235329385 0.6662207152882933
135 50.96436752284957 10.427897997331382 43.05377327449963 2.4510074856917035 0.8170024952305673 0.8170024952305673 0.0 0.0 0.5807371118896761 0.8140911539097067
136 1.569127793984094 37.79174360250093 46.83593368305885 2.475640520447454 0.8252135068158148 0.8252135068158148 0.0 -0.0 0.7765636880913803 0.6300387593933514
137 13.555438015285132 39.43767587052167 13.58361680975591 2.475640520447454 0.8252135068158148 0.8252135068158148 0.0 -0.0 0.9207785641385271 0.39008567754147583
138 42.2734097228472 44.99136316063365 55.571657253356186 2.500521121318275 0.833507040439427 0.833507040439427 0.0 0.0 0.5933031767685688 0.8049790931672228
139 57.430481593629395 14.890018894163308 57.5981509543744 2.500521121318275 0.833507040439427 0.833507040439427 0.0 0.0 0.36293328461656904 0.9318151270061183
140 31.388800896905764 10.282738387611344 59.963104537100286 2.5256517763850264 0.8418839254616719 0.8418839254616719 0.0 0.0 0.5657838974393875 0.8245535649054563
141 58.231519095892494 57.93779950400839 58.40632903794402 2.5256517763850264 0.8418839254616719 0.8418839254616719 0.0 0.0 0.5898626798291705 0.8075035720941112
142 10.28962976302099 31.468868859193567 59.52794453877208 2.5510349987341154 0.8503449995780403 0.8503449995780403 0.0 0.0 0.494526605223718 0.8691624915548904
143 48.85784698691898 29.1506198661745 60.26892783872149 2.5510349987341154 0.8503449995780403 0.8503449995780403 0.0 0.0 0.6621201748514545 0.7493976741721844
144 7.676819583469337 31.87899121372947 35.31119399982454 2.576673326708949 0.8588911089029817 0.8588911089029817 0.0 -0.0 0.8358120424685423 0.5490156916378287
145 58.900963009489054 46.00575513216858 25.64428172519691 2.576673326708949 0.8588911089029817 0.8588911089029817 0.0 -0.0 0.7380766977143534 0.6747168208152773
146 38.09879016867036 0.0033030146454186005 48.703100116871845 2.6025693241637025 0.867523108054568 0.867523108054568 0.0 0.0 0.5600689403365469 0.8284460043179022
147 35.8874413599938 38.43654463521556 42.931657591856556 2.6025693241637025 0.867523108054568 0.867523108054568 0.0 -0.0 0.8053653384335279 0.5927787712543771
148 53.36442695595137 32.821296961396406 57.21641662559605 2.6287255807196774 0.8762418602398884 0.8762418602398884 0.0 -0.0 0.9475491048281723 0.31961022189430877
149 17.54512984472408 59.0778704959801 33.65321434939477 2.6287255807196774 0.8762418602398884 0.8762418602398884 0.0 -0.0 0.8855269061838191 0.46458809543994295
150 58.37390182401433 48.69889852440642 10.264707201646953 2.6551447120243337 0.8850482373414466 0.8850482373414466 0.0 -0.0 0.8997163709941051 0.43647502994466686
151 24.135230247414487 60.31780791987443 2.5571771977328854 2.6551447120243337 0.8850482373414466 0.8850482373414466 0.0 0.0 0.6949034215940625 0.7191030765174521
152 22.130421258699243 1.755104568491559 10.946256024738812 2.681829360012814 0.893943120004275 0.893943120004275 0.0 0.0 0.6496096252583186 0.7602679361723385
153 10.932366963686942 30.88807929790479 5.967913081770028 2.681829360012814 0.893943120004275 0.893943120004275 0.0 0.0 0.6980264017745981 0.7160720232110785
154 42.64341620815758 57.086352719413235 12.304998583376014 2.708782193172173 0.9029273977240564 0.9029273977240564 0.0 -0.0 0.9126309719920443 0.4087844284716046
155 18.67671893531474 31.712508468990148 12.700299206892431 2.708782193172173 0.9029273977240564 0.9029273977240564 0.0 0.0 0.34897032679986184 0.9371337743423815
156 6.711030381414119 58.156131552613964 0.09961639520118926 2.736005906808173 0.9120019689360609 0.9120019689360609 0.0 0.0 0.6995675014656925 0.7145665195718649
157 27.86795426554845 1.528927047350952 42.76658417853827 2.736005906808173 0.9120019689360609 0.9120019689360609 0.0 0.0 0.63565327495599 0.7719746848425306
158 49.57152977528629 18.477825706393872 27.794045398284247 2.763503223314862 0.9211677411049577 0.9211677411049577 0.0 -0.0 0.7426985308561326 0.6696259345814963
159 0.09617228631382083 5.555948737410766 21.822000780252203 2.763503223314862 0.9211677411049577 0.9211677411049577 0.0 0.0 0.4891044501540252 0.8722252213961303
160 39.33547389721638 47.980244695006384 14.165201346837234 2.7912768924468248 0.9304256308156055 0.9304256308156055 0.0 0.0 0.6466947184788655 0.7627489371290798
161 28.662506442714246 18.885341209079954 41.65563024169385 2.7912768924468248 0.9304256308156055 0.9304256308156055 0.0 0.0 0.6377575578887067 0.7702371695496348
162 47.4291382418284 57.154110278698056 40.78886755135253 2.81932969159408 0.9397765638646967 0.9397765638646967 0.0 0.0 0.6701572236966805 0.7422191694689361
163 44.41275462640887 18.869048746577953 37.74581407604465 2.81932969159408 0.9397765638646967 0.9397765638646967 0.0 -0.0 0.7797338016261434 0.6261111711203069
164 17.028582500886834 31.826009773478027 29.131509206535632 2.8476644260599557 0.9492214753533182 0.9492214753533182 0.0 0.0 0.6966086930688543 0.7174512727293072
165 11.345195433721418 39.81286633186001 59.76096696841548 2.8476644260599557 0.9492214753533182 0.9492214753533182 0.0 -0.0 0.8994069955971553 0.43711217813153935
9_Ba 49.492646060660945 1.3226329893314506 60.953477317519244 1.047597197702754 0.3491990659009194 0.3491990659009194 0.0 -0.0 0.7176002965020949 0.6964551776389529
15_B 19.135886580868004 61.037930571870774 28.85583112566444 1.1123769905792877 0.3707923301930964 0.3707923301930964 0.0 0.0 0.6340811782098568 0.7732664866913604
49_Ba 19.382132395926753 26.99228163386525 61.27369766281117 1.562831372712741 0.5209437909042485 0.5209437909042485 0.0 -0.0 0.7611420715427216 0.6485851886434459
62_T 56.291302877016406 -0.19786406840968596 32.36712151235873 1.710009897789988 0.5700032992633317 0.5700032992633317 0.0 0.0 0.6993489688984815 0.7147803996337831
67_R 61.19755442456229 57.896745667131114 4.256815203077718 1.7445543891843718 0.5815181297281234 0.5815181297281234 0.0 -0.0 0.7991221049958454 0.6011687461162707
77_T 54.579177431695875 -1.5782992930275128 20.825526839420704 1.8339996054054573 0.6113332018018167 0.6113332018018167 0.0 -0.0 0.724549744492829 0.6892225096116464
83_F 19.178865293292855 24.615234780669333 -0.12349559744796323 1.8898532086590119 0.6299510695530018 0.6299510695530018 0.0 -0.0 0.8280938516825816 0.560589486884571
85_R 61.818424961370575 39.767342367091366 9.392646079045285 1.9088465491705853 0.6362821830568625 0.6362821830568625 0.0 0.0 0.2683204071818837 0.9633297250109892
87_R 61.56323285490368 51.45992051388485 44.52134063048117 1.9280307759277866 0.6426769253092629 0.6426769253092629 0.0 -0.0 0.7407334016199733 0.6717990977401677
115_B 45.00885456634467 61.073744330688655 23.790514145877687 2.2177632849400863 0.7392544283133625 0.7392544283133625 0.0 0.0 0.692332939305712 0.7215782016887105
118_B 37.99279813821731 61.65197284052543 5.716754756291173 2.262565075158015 0.7541883583860065 0.7541883583860065 0.0 -0.0 0.9854258972554679 0.17010526452245991
119_F 28.535620381204097 10.564542511780273 -0.6636098562612887 2.262565075158015 0.7541883583860065 0.7541883583860065 0.0 0.0 0.693566054094668 0.720393037589587
127_R 61.628445106398964 33.53010780984449 44.3861498002058 2.3549021075358794 0.7849673691786249 0.7849673691786249 0.0 0.0 0.6645731125154195 0.7472232451694524
128_B 20.80616664704806 62.89629761503761 41.90312768235499 2.3785692671834724 0.7928564223944888 0.7928564223944888 0.0 -0.0 0.837305869343264 0.5467347447925007
129_B 54.940282171169514 61.480168220071825 36.80503424313393 2.3785692671834724 0.7928564223944888 0.7928564223944888 0.0 0.0 0.6718759690179156 0.7406636768846148
133_B 47.83836116421739 62.329215888641244 24.804564249193056 2.4266195537270336 0.8088731845756792 0.8088731845756792 0.0 0.0 0.7047758212396541 0.7094300823872436
143_F 48.85784698691898 29.1506198661745 -0.6310721612785102 2.5510349987341154 0.8503449995780403 0.8503449995780403 0.0 0.0 0.6621201748514545 0.7493976741721844
146_B 38.09879016867036 60.90330301464542 48.703100116871845 2.6025693241637025 0.867523108054568 0.867523108054568 0.0 0.0 0.5600689403365469 0.8284460043179022