ITEM: TIMESTEP
485
ITEM: NUMBER OF ATOMS
244
ITEM: BOX BOUNDS ff ff ff
0 60.9
60.9 0
60.9 0
ITEM: ATOMS id x y z AsphericalShapeX AsphericalShapeY AsphericalShapeZ OrientationX OrientationY OrientationZ OrientationW
1 47.090888853129215 41.891621865058376 21.110160816791993 3.430571470418481 1.143523823472832 1.143523823472832 0.0 -0.0 0.7863642711635499 0.6177630881150306
2 10.573556919174695 16.862448172249128 23.210815770859817 3.465049286890363 1.1550164289634341 1.1550164289634341 0.0 -0.0 0.8896314041555925 0.4566792799549252
3 8.988396980004028 18.71026254544723 58.494203991930306 3.499873611178432 1.1666245370594914 1.1666245370594914 0.0 0.0 0.631512325711268 0.7753658378305981
4 17.92706339436126 46.59621851901547 47.87236068299889 3.5350479257443057 1.1783493085814303 1.1783493085814303 0.0 0.0 0.5765741652112841 0.8170448164029381
5 45.24816558847074 14.64881486428856 16.428359933313416 3.5705757480485754 1.190191916016186 1.190191916016186 0.0 -0.0 0.8873914294477543 0.4610167577677315
6 28.431465437243002 6.21041784863774 20.261120739289012 3.60646063090313 1.2021535436343826 1.2021535436343826 0.0 0.0 0.643710445538684 0.7652691437033046
7 29.431775555201128 59.49605726311912 32.33417930476365 3.642706162826172 1.2142353876087237 1.2142353876087237 0.0 -0.0 0.7603958793842515 0.6494598575858641
8 44.51743232105714 33.934542972032894 16.739239085648915 3.6793159684010814 1.226438656133707 1.226438656133707 0.0 -0.0 0.7854601334426244 0.6189122545016335
9 49.95991006073637 0.7584953208795265 51.825036724182496 3.7162937086389944 1.238764569546333 1.238764569546333 0.0 -0.0 0.7176002965020949 0.6964551776389529
10 49.942604018795336 7.66477054673798 11.042525391117989 3.7536430813446584 1.2512143604482238 1.2512143604482238 0.0 0.0 0.38534345666417513 0.9227732226317065
11 30.24593198591613 35.03988313849309 59.39610259129764 3.7913678214864914 1.263789273828832 1.263789273828832 0.0 0.0 0.49983922045674145 0.866118209999765
12 1.5841733387071986 11.591002726443348 25.316282705177642 3.8294717015699224 1.2764905671899887 1.2764905671899887 0.0 0.0 0.2746680171135514 0.9615391205639581
13 5.354395941741152 49.79851831754314 16.69810969579091 3.8679585320148755 1.2893195106716078 1.2893195106716078 0.0 -0.0 0.7886508549344257 0.614841303924191
14 17.907703296435272 34.20613578203017 26.09066502317075 3.9068321615362303 1.3022773871787214 1.3022773871787214 0.0 -0.0 0.7750680292508737 0.6318777967559605
15 26.02635527654451 39.698340711329436 23.025865014728176 3.9460964775294176 1.3153654925098242 1.3153654925098242 0.0 0.0 0.6340811782098568 0.7732664866913604
16 12.547621093145152 30.14143699554532 53.827914074794485 3.9857554064589156 1.3285851354862872 1.3285851354862872 0.0 -0.0 0.7629176367612683 0.6464956918020424
17 22.676052619399524 21.489979554504167 38.09968213702017 4.025812914250423 1.3419376380834598 1.3419376380834598 0.0 0.0 0.6579222258448839 0.7530858813836
18 39.228782739854346 39.715824847037275 16.10123936345027 4.066273006688246 1.3554243355627351 1.3554243355627351 0.0 0.0 0.506211649243881 0.8624092799650234
19 25.71263528994169 14.399414565781468 41.57019211088687 4.1071397298153185 1.3690465766050892 1.3690465766050892 0.0 0.0 0.6434542777811493 0.7654845474633303
20 30.438256097714696 57.22367577370443 35.98524502211718 4.148417170337972 1.3828057234459978 1.3828057234459978 0.0 -0.0 0.7861857262579329 0.6179902942832407
21 43.294768430178195 21.22063499196646 45.02903791783596 4.190109456034688 1.3967031520115427 1.3967031520115427 0.0 0.0 0.6069811502172251 0.7947162281474907
22 13.708078832188365 0.6568888262077083 26.59759070261064 4.232220756168737 1.4107402520562435 1.4107402520562435 0.0 -0.0 0.8910647246123514 0.45387625687131333
23 36.772141546238274 50.26846593326644 44.23349132473134 4.27475528190536 1.4249184273017947 1.4249184273017947 0.0 -0.0 0.7582829367961579 0.651925599868416
24 27.29445899695665 58.342378362462526 48.66592454358812 4.317717286732432 1.439239095577476 1.439239095577476 0.0 0.0 0.5255054740936084 0.8507902189715464
25 16.798513778700976 55.31585067575689 49.301537806927776 4.361111066886344 1.4537036889620951 1.4537036889620951 0.0 0.0 0.6637035342538496 0.7479957343587923
26 59.739065069991035 56.99513730265638 26.258768815819018 4.40494096178109 1.4683136539270432 1.4683136539270432 0.0 0.0 0.5361151400853296 0.8441448670526212
27 0.0036409609171136085 21.646557414830383 25.415587156316466 4.449211354442889 1.4830704514809678 1.4830704514809678 0.0 -0.0 0.7297620279401082 0.6837012378054764
28 22.579229831567506 32.06458476807174 34.0232756041007 4.4939266719478255 1.49797555731593 1.49797555731593 0.0 -0.0 0.9828164757017253 0.18458541407500267
29 45.70713992873925 31.338354948105238 29.890590888653218 4.539091385864913 1.5130304619549868 1.5130304619549868 0.0 -0.0 0.8740853421614372 0.4857723897243679
30 17.34586930178635 0.4727478084371719 31.81450502881927 4.584710012703159 1.5282366709010684 1.5282366709010684 0.0 -0.0 0.8433777540022546 0.5373210995802349
31 53.22341614600307 56.945385631966836 37.50433052702841 4.6307871143632635 1.5435957047877797 1.5435957047877797 0.0 0.0 0.6952778540174372 0.7187410560924617
32 53.95948024535541 36.86673656079733 33.19179331283647 4.677327298593839 1.559109099531294 1.559109099531294 0.0 0.0 0.6353234605105568 0.7722461398575527
33 24.680507959361798 29.928813352576505 25.377337872209022 4.724335219452061 1.5747784064840058 1.5747784064840058 0.0 0.0 0.6411270229476993 0.7674347792784871
34 24.462680062415703 8.743585927205492 22.038271326277965 4.771815577769133 1.5906051925897375 1.5906051925897375 0.0 -0.0 0.7453722743584635 0.6666484625480594
35 25.228995524780252 52.16656660258302 42.469654674875365 4.8197731216205755 1.6065910405402075 1.6065910405402075 0.0 -0.0 0.7109313362059317 0.7032614273514853
36 39.368654371608606 60.407750455467074 1.089678955173357 4.868212646800607 1.6227375489335623 1.6227375489335623 0.0 -0.0 0.739632735620696 0.6730107104632479
37 20.987737908214516 60.42995064500855 17.23367203635863 4.917138997302275 1.6390463324341065 1.6390463324341065 0.0 0.0 0.5163603530767541 0.8563714064414165
38 18.099083301333064 9.494111218869035 21.427940206836904 4.96655706580122 1.6555190219337226 1.6555190219337226 0.0 0.0 0.5145463711011363 0.8574625542766586
39 12.606097615589643 24.74481726264043 25.516348320557537 5.016471794145567 1.6721572647151892 1.6721572647151892 0.0 0.0 0.5880831456971182 0.8088004783300898
40 60.45985931275449 26.686180404910004 14.847996335028704 5.066888173849802 1.6889627246165795 1.6889627246165795 0.0 -0.0 0.8608342640850161 0.5088854191045453
41 21.771474649174124 9.114849848750366 36.01601026864105 5.11781124659374 1.7059370821979023 1.7059370821979023 0.0 0.0 0.5813114541301716 0.8136811373609846
42 15.925907630814503 13.343019920554937 40.27084631797221 5.169246104727199 1.7230820349090823 1.7230820349090823 0.0 0.0 0.6858728758951139 0.7277213739552836
43 2.7033611109772613 52.73044353273643 35.670642664017315 5.22119789177894 1.7403992972596403 1.7403992972596403 0.0 -0.0 0.8971229945165649 0.4417808650333688
44 46.90598655305009 15.117421943709918 28.745465523322483 5.273671802970828 1.75789060099026 1.75789060099026 0.0 -0.0 0.7662793896249596 0.6425075073771507
45 41.188856049492365 38.32074372663244 36.03576287509984 5.3266730857377675 1.7755576952459036 1.7755576952459036 0.0 -0.0 0.8021859139948743 0.5970743332184094
46 13.719534639634855 34.94945470055311 16.70824234958604 5.3802070402521025 1.7934023467507196 1.7934023467507196 0.0 0.0 0.6689296931602822 0.7433256793683982
47 49.27976734367639 28.052980451694403 13.072339228823381 5.434279019954082 1.8114263399846942 1.8114263399846942 0.0 -0.0 0.8121614142020023 0.5834328044268712
48 58.96537805572171 52.03050628100155 16.936244062826557 5.488894432086641 1.8296314773622149 1.8296314773622149 0.0 0.0 0.43861391052531945 0.8986756019241242
49 23.685347292121865 9.683227512066486 7.534583698816524 5.544058738236434 1.8480195794121579 1.8480195794121579 0.0 -0.0 0.7611420715427216 0.6485851886434459
50 29.27007606724522 13.433615676187221 56.075319267331196 5.599777454880171 1.866592484960046 1.866592484960046 0.0 0.0 0.5689873473401131 0.8223462765568174
51 47.17822571360452 27.091295090300072 39.576804864247066 5.656056153935913 1.8853520513119473 1.8853520513119473 0.0 -0.0 0.9816329176571261 0.1907794930592849
52 33.57575006003687 31.21650257334248 25.013587311683434 5.712900463320409 1.9043001544401048 1.9043001544401048 0.0 -0.0 0.8312938914163103 0.5558331279205367
53 9.475706492415885 54.70465998602404 7.785442805358935 5.770316067511901 1.9234386891706672 1.9234386891706672 0.0 0.0 0.4937832216878833 0.8695850332081013
54 32.97451788378737 51.65941724751599 42.407994393484685 5.82830870811886 1.9427695693729505 1.9427695693729505 0.0 -0.0 0.7425013715714329 0.6698445440656666
55 20.08967847875496 41.636611722190686 9.2053361945129 5.82830870811886 1.9427695693729505 1.9427695693729505 0.0 -0.0 0.899222239431846 0.4374921303419936
56 36.03631995580713 11.012075122550604 23.549706220098653 5.88688418445359 1.962294728151186 1.962294728151186 0.0 0.0 0.591041689671776 0.8066410112744902
57 52.68997292571879 0.6762413006122817 56.75403862860087 5.88688418445359 1.962294728151186 1.962294728151186 0.0 0.0 0.6906372933410847 0.7232013060320761
58 30.669421741845774 39.251068366744725 33.45056785712913 5.946048354112478 1.9820161180374891 1.9820161180374891 0.0 -0.0 0.9778925487455288 0.20910801779935065
59 27.440469450059815 52.86525300940891 24.68364764516345 5.946048354112478 1.9820161180374891 1.9820161180374891 0.0 -0.0 0.8334397726994561 0.5526103014626843
60 43.38324047926338 26.767026614916475 56.057885417844176 6.005807133561951 2.001935711187293 2.001935711187293 0.0 -0.0 0.8251393648538317 0.5649292243888745
61 14.910702528302988 58.05747965557892 40.2967115449361 6.005807133561951 2.001935711187293 2.001935711187293 0.0 -0.0 0.8342848482439009 0.5513336485202505
62 18.976256222986926 59.020054792161716 44.97397086067909 6.066166498729498 2.022055499576477 2.022055499576477 0.0 0.0 0.6993489688984815 0.7147803996337831
63 35.01442855707447 0.07641043923370816 51.190487135109564 6.066166498729498 2.022055499576477 2.022055499576477 0.0 0.0 0.6638694557235675 0.747848477806363
64 38.583841701449394 35.30813392726153 43.87500070032402 6.127132485602145 2.0423774952007063 2.0423774952007063 0.0 0.0 0.5469534661185369 0.8371630103515794
65 19.47154991499463 14.633269870026433 3.0632581352211847 6.127132485602145 2.0423774952007063 2.0423774952007063 0.0 0.0 0.534266604389083 0.8453160328744268
66 29.61059739920836 7.646235747993329 28.291425976485932 6.188711190829161 2.0629037302764117 2.0629037302764117 0.0 0.0 0.49259387534365895 0.8702593142126752
67 59.787503243183295 25.533321979730307 9.658224182673383 6.188711190829161 2.0629037302764117 2.0629037302764117 0.0 -0.0 0.7991221049958454 0.6011687461162707
68 43.28331390983885 43.7550472563486 18.506313125221915 6.250908772332724 2.0836362574442515 2.0836362574442515 0.0 -0.0 0.8113628171424923 0.5845428803420658
69 35.986041459068794 15.7609830760634 57.40226961009408 6.250908772332724 2.0836362574442515 2.0836362574442515 0.0 0.0 0.69974083585519 0.7143967823532522
70 10.811157802063772 59.111147370921266 21.77235736354523 6.313731449922572 2.1045771499741734 2.1045771499741734 0.0 -0.0 0.9226100212719841 0.3857340387475665
71 24.920962797051082 2.3973896428728407 24.04834383105345 6.313731449922572 2.1045771499741734 2.1045771499741734 0.0 -0.0 0.8908476943010929 0.4543020862360491
72 6.782197068152727 45.22976449639377 8.704288880261398 6.377185505918811 2.1257285019729553 2.1257285019729553 0.0 -0.0 0.9180976465577227 0.39635427509384946
73 39.768822822862475 41.59109323006572 29.32992738069452 6.377185505918811 2.1257285019729553 2.1257285019729553 0.0 0.0 0.6852526383261238 0.7283054453092375
74 41.7508411184078 17.454230766161213 13.029378867191438 6.441277285780077 2.1470924285933624 2.1470924285933624 0.0 0.0 0.6622208999947843 0.7493086677799063
75 55.959979454600195 47.03113689061128 38.227373946528424 6.441277285780077 2.1470924285933624 2.1470924285933624 0.0 0.0 0.6669694181073614 0.7450850926636016
76 53.690099417513956 5.0965747960035275 32.988885318037944 6.506013198737553 2.1686710662458895 2.1686710662458895 0.0 0.0 0.4849872773235938 0.8745212066235144
77 19.92286734676427 48.04976343918389 17.53337680335186 6.506013198737553 2.1686710662458895 2.1686710662458895 0.0 -0.0 0.724549744492829 0.6892225096116464
78 3.3053357315784884 19.148063076859163 9.80441411828064 6.571399718436697 2.1904665728122326 2.1904665728122326 0.0 0.0 0.646327957303847 0.7630597431442944
79 6.332419384179205 20.076045885684753 28.57126801455193 6.571399718436697 2.1904665728122326 2.1904665728122326 0.0 0.0 0.4210348644808628 0.9070444547493698
80 52.27141304997062 8.099061197200779 19.93892835590714 6.637443383583922 2.2124811278612726 2.2124811278612726 0.0 0.0 0.5786941501693628 0.8155446527074768
81 57.21078568869501 39.84691437343265 26.67869511807515 6.637443383583922 2.2124811278612726 2.2124811278612726 0.0 0.0 0.683142879342022 0.730284743373632
82 10.520678748516369 10.61105039864702 1.0810794119283875 6.70415079860061 2.2347169328668386 2.2347169328668386 0.0 0.0 0.3480344086077516 0.937481760049257
83 25.587267860689984 52.52553749615245 1.1027184902231908 6.70415079860061 2.2347169328668386 2.2347169328668386 0.0 -0.0 0.8280938516825816 0.560589486884571
84 33.10543020080837 5.941663402301078 8.290909497088741 6.771528634283902 2.257176211427997 2.257176211427997 0.0 -0.0 0.8521868438699086 0.5232375972109076
85 22.403698995352343 41.94449792890335 29.509696603666526 6.771528634283902 2.257176211427997 2.257176211427997 0.0 0.0 0.2683204071818837 0.9633297250109892
86 6.557677751456744 1.6893605660939501 60.374416655923135 6.839583628473695 2.2798612094912443 2.2798612094912443 0.0 0.0 0.5717525694490604 0.8204261083902665
87 8.532613934622493 53.59366253959806 46.4367959834851 6.839583628473695 2.2798612094912443 2.2798612094912443 0.0 -0.0 0.7407334016199733 0.6717990977401677
88 29.90041900294894 52.505666279637296 53.32885267724238 6.90832258672609 2.302774195575331 2.302774195575331 0.0 0.0 0.6524446383875427 0.7578363898885753
89 34.654533641956235 26.311983905780053 48.67977435118016 6.90832258672609 2.302774195575331 2.302774195575331 0.0 0.0 0.3815125934194192 0.9243636411404275
90 19.40270703440339 11.22043556310388 48.06191405998202 6.97775238299403 2.3259174609979794 2.3259174609979794 0.0 -0.0 0.7664413141092511 0.642314340511314
91 38.74198210317598 56.492228951699886 27.961542312220683 6.97775238299403 2.3259174609979794 2.3259174609979794 0.0 -0.0 0.7164030651197486 0.6976866404676452
92 46.34741621467256 19.456034596033454 39.01472390153931 7.04787996031497 2.3492933201049877 2.3492933201049877 0.0 0.0 0.3159382626609752 0.9487797500931208
93 20.908130881556527 39.528884807746415 41.81491034988682 7.04787996031497 2.3492933201049877 2.3492933201049877 0.0 -0.0 0.807675111463051 0.5896277760783901
94 51.44554267863285 13.378997667285837 48.650549808045724 7.118712331505258 2.3729041105017825 2.3729041105017825 0.0 0.0 0.5856043209472178 0.8105970511221638
95 47.80087625859906 2.1144904623429803 55.278626879220795 7.118712331505258 2.3729041105017825 2.3729041105017825 0.0 -0.0 0.8283891439806925 0.5601530381377355
96 40.74355964819195 6.6073313846629125 42.119746339094924 7.190256579861023 2.396752193287049 2.396752193287049 0.0 0.0 0.6380161188650698 0.7700230074928626
97 32.747715074206624 14.441169754981297 27.862875561243698 7.190256579861023 2.396752193287049 2.396752193287049 0.0 0.0 0.5652655734899162 0.8249089837231233
98 19.46243005146265 24.302475539483183 41.561364344616656 7.2625198598667575 2.420839953288894 2.420839953288894 0.0 -0.0 0.9884337224668884 0.15165347437579585
99 52.67172964659091 37.77252631650378 9.399766892014823 7.2625198598667575 2.420839953288894 2.420839953288894 0.0 0.0 0.644584962479319 0.7645326848117973
100 37.67379590948591 34.08599942328097 56.404946195078054 7.335509397910435 2.445169799303505 2.445169799303505 0.0 -0.0 0.7665764345255346 0.6421530736748979
101 14.10676801409381 33.64265266244429 57.97365646015105 7.335509397910435 2.445169799303505 2.445169799303505 0.0 -0.0 0.7486465484609144 0.6629693397718779
102 40.83915472403485 42.83382521840075 11.675394241161595 7.409232493006882 2.469744164335662 2.469744164335662 0.0 -0.0 0.764238184631255 0.644934102952793
103 26.85170276715224 40.87849382410387 5.138401014547222 7.409232493006882 2.469744164335662 2.469744164335662 0.0 -0.0 0.7262700822056904 0.6874094614514261
104 45.69356194510981 4.263266184769833 49.241720140880005 7.4836965175272 2.4945655058423553 2.4945655058423553 0.0 0.0 0.6864264585310771 0.7271992278794606
105 17.462575982639127 47.08616282884694 10.008076954740604 7.4836965175272 2.4945655058423553 2.4945655058423553 0.0 -0.0 0.8498704758576332 0.5269916263713497
106 19.83467689738824 26.541104123821043 55.07770673704257 7.558908917935503 2.519636305978502 2.519636305978502 0.0 -0.0 0.793590538753224 0.6084521811953406
107 40.92708211556082 60.33747698753681 16.932504106302638 7.558908917935503 2.519636305978502 2.519636305978502 0.0 -0.0 0.8299364941277125 0.5578578812878792
108 51.276004771128356 47.393498772423726 4.951410820799747 7.634877215534797 2.544959071844889 2.544959071844889 0.0 -0.0 0.7596155095013813 0.650372414640225
109 0.45062883948610916 40.95956400275892 1.255715932380057 7.634877215534797 2.544959071844889 2.544959071844889 0.0 -0.0 0.746179639226726 0.6657446552571586
110 43.89413748499752 13.455366678453569 53.48246219395852 7.711609007218007 2.5705363357392916 2.5705363357392916 0.0 -0.0 0.7434755474029917 0.6687631198068729
111 34.694466344580604 39.62906928072678 18.584149552390244 7.711609007218007 2.5705363357392916 2.5705363357392916 0.0 -0.0 0.7635489887521677 0.6457499065238353
112 47.75931000292762 54.439590242410894 16.101792381516482 7.789111966228227 2.596370655409453 2.596370655409453 0.0 -0.0 0.925703395166632 0.3782502137170186
113 10.062708387201996 1.7507127841701857 11.15803891694531 7.789111966228227 2.596370655409453 2.596370655409453 0.0 -0.0 0.7476030998596368 0.6641457709571461
114 5.900724028531033 4.421362709948537 33.12862365180195 7.867393842926141 2.6224646143087145 2.6224646143087145 0.0 -0.0 0.7095009508808979 0.7047044775642494
115 25.293939728575328 7.456122097093871 52.21301309977374 7.867393842926141 2.6224646143087145 2.6224646143087145 0.0 0.0 0.692332939305712 0.7215782016887105
116 12.871805802270682 19.43052912442181 51.8450057417601 7.946462465564606 2.6488208218548417 2.6488208218548417 0.0 0.0 0.4838188577050026 0.8751681626573412
117 47.01345237306219 42.74456010448642 31.035702925521203 7.946462465564606 2.6488208218548417 2.6488208218548417 0.0 0.0 0.4072390243389004 0.9133216175343166
118 44.97613463730471 21.82734603826034 60.446931715442226 8.026325741071481 2.6754419136904954 2.6754419136904954 0.0 -0.0 0.9854258972554679 0.17010526452245991
119 37.975017215810425 35.81803053004767 4.393995752871069 8.026325741071481 2.6754419136904954 2.6754419136904954 0.0 0.0 0.693566054094668 0.720393037589587
120 34.919229975944 32.16841867028913 34.0988976761114 8.10699165584121 2.7023305519470697 2.7023305519470697 0.0 -0.0 0.8546373086497397 0.5192254526349123
121 2.3700089117606846 49.069307084029965 54.95285544936032 8.10699165584121 2.7023305519470697 2.7023305519470697 0.0 -0.0 0.738138054050796 0.6746496966293722
122 55.08275703768548 31.384533542261376 60.35415765497195 8.188468276532351 2.7294894255108155 2.7294894255108155 0.0 0.0 0.30497028615780525 0.9523618663936657
123 41.43764410711182 37.83435661687559 51.78565492227642 8.188468276532351 2.7294894255108155 2.7294894255108155 0.0 -0.0 0.8240326158671573 0.5665423620411186
124 7.9638786151484675 47.40384380816936 59.98968583358735 8.270763750875043 2.756921250291674 2.756921250291674 0.0 -0.0 0.7351480847541838 0.6779065521753388
125 55.37885496239599 49.017749058868944 52.75290491364054 8.270763750875043 2.756921250291674 2.756921250291674 0.0 0.0 0.6354145425399089 0.7721711980699606
126 27.46529750284085 6.393414626897123 41.95778060307543 8.353886308485007 2.784628769495006 2.784628769495006 0.0 -0.0 0.9631928649301144 0.2688112812880415
127 56.24272153657594 29.05310607180241 41.071518613563725 8.353886308485007 2.784628769495006 2.784628769495006 0.0 0.0 0.6645731125154195 0.7472232451694524
128 12.000237003313604 47.98954110116035 51.50393852614741 8.437844261687305 2.8126147538957667 2.8126147538957667 0.0 -0.0 0.837305869343264 0.5467347447925007
129 41.50324103672752 59.64170505148083 11.346656584540236 8.437844261687305 2.8126147538957667 2.8126147538957667 0.0 0.0 0.6718759690179156 0.7406636768846148
130 31.292660194812385 47.877063420748655 12.289537467999326 8.52264600634757 2.8408820021158276 2.8408820021158276 0.0 -0.0 0.8172568989423515 0.5762735124323614
131 6.099375100537627 24.931247284377555 36.552772385247295 8.52264600634757 2.8408820021158276 2.8408820021158276 0.0 0.0 0.5650588956672867 0.8250505708302167
132 25.673350731678894 0.6037045391387286 57.286851111441095 8.608300022710583 2.869433340903511 2.869433340903511 0.0 0.0 0.5632303093681869 0.8262999568008076
133 19.6814735234294 50.979746181355274 37.6795513152804 8.608300022710583 2.869433340903511 2.869433340903511 0.0 0.0 0.7047758212396541 0.7094300823872436
134 3.9964006948184783 35.44214558046327 45.90917728753322 8.694814876249346 2.898271625416439 2.898271625416439 0.0 -0.0 0.7457546235329385 0.6662207152882933
135 42.68430284044583 47.840712861092975 60.79076872937634 8.694814876249346 2.898271625416439 2.898271625416439 0.0 0.0 0.5807371118896761 0.8140911539097067
136 14.244366809408033 55.17260593430769 59.50532124466501 8.782199218521598 2.9273997395071976 2.9273997395071976 0.0 -0.0 0.7765636880913803 0.6300387593933514
137 1.7172044860579332 34.770045847779556 30.313102085895178 8.782199218521598 2.9273997395071976 2.9273997395071976 0.0 -0.0 0.9207785641385271 0.39008567754147583
138 49.18842133728926 26.334085406016282 22.804505730098047 8.870461788034188 2.9568205960113634 2.9568205960113634 0.0 0.0 0.5933031767685688 0.8049790931672228
139 58.09581112621436 21.263758046356966 2.051465348796123 8.870461788034188 2.9568205960113634 2.9568205960113634 0.0 0.0 0.36293328461656904 0.9318151270061183
140 58.98853266087944 2.5294700311733584 42.143494777420734 8.959611411117745 2.986537137039242 2.986537137039242 0.0 0.0 0.5657838974393875 0.8245535649054563
141 21.213156439345205 53.19082941326845 56.584646036398865 8.959611411117745 2.986537137039242 2.986537137039242 0.0 0.0 0.5898626798291705 0.8075035720941112
142 4.281715774814145 25.16067446669865 4.42495985839811 9.04965700280854 3.016552334269555 3.016552334269555 0.0 0.0 0.494526605223718 0.8691624915548904
143 32.18900205376037 53.92192154923162 60.86683275505907 9.04965700280854 3.016552334269555 3.016552334269555 0.0 0.0 0.6621201748514545 0.7493976741721844
144 10.846387725235934 34.322614806306426 48.10749057481745 9.140607567741245 3.046869189247107 3.046869189247107 0.0 -0.0 0.8358120424685423 0.5490156916378287
145 10.784875587807731 36.67979849831773 13.056187434208212 9.140607567741245 3.046869189247107 3.046869189247107 0.0 -0.0 0.7380766977143534 0.6747168208152773
146 23.866241060640203 53.46370083825078 48.72612595274602 9.232472201047834 3.0774907336826307 3.0774907336826307 0.0 0.0 0.5600689403365469 0.8284460043179022
147 38.19590702918072 19.887593468667358 35.60998301304638 9.232472201047834 3.0774907336826307 3.0774907336826307 0.0 -0.0 0.8053653384335279 0.5927787712543771
148 60.26308927089766 20.12036384970927 56.37708145189949 9.325260089268358 3.1084200297561284 3.1084200297561284 0.0 -0.0 0.9475491048281723 0.31961022189430877
149 47.061476612599904 52.865915320719296 26.053639903328687 9.325260089268358 3.1084200297561284 3.1084200297561284 0.0 -0.0 0.8855269061838191 0.46458809543994295
150 21.003426504625068 21.281307440562927 19.257943817127373 9.41898051126885 3.1396601704229523 3.1396601704229523 0.0 -0.0 0.8997163709941051 0.43647502994466686
151 29.009476476188855 41.000123741712784 42.38416242802952 9.41898051126885 3.1396601704229523 3.1396601704229523 0.0 0.0 0.6949034215940625 0.7191030765174521
152 56.97265505714148 4.888204611550208 59.99532743164208 9.513642839169664 3.1712142797231997 3.1712142797231997 0.0 0.0 0.6496096252583186 0.7602679361723385
153 28.24690336038571 19.84537444931195 6.79650082613351 9.513642839169664 3.1712142797231997 3.1712142797231997 0.0 0.0 0.6980264017745981 0.7160720232110785
154 45.31975495602725 7.304298468844045 4.547794961386128 9.609256539282308 3.2030855130940847 3.2030855130940847 0.0 -0.0 0.9126309719920443 0.4087844284716046
155 14.637723711900279 42.68379252138284 3.7874623128524747 9.609256539282308 3.2030855130940847 3.2030855130940847 0.0 0.0 0.34897032679986184 0.9371337743423815
156 33.01937637419363 43.40236976355107 47.232420159155886 9.705831173056762 3.2352770576855496 3.2352770576855496 0.0 0.0 0.6995675014656925 0.7145665195718649
157 27.5329853318865 24.78594540996471 45.81942062797264 9.705831173056762 3.2352770576855496 3.2352770576855496 0.0 0.0 0.63565327495599 0.7719746848425306
158 48.09254322912684 3.4562964898283 42.71354941161003 9.803376398036741 3.267792132678908 3.267792132678908 0.0 -0.0 0.7426985308561326 0.6696259345814963
159 21.035356109592026 19.131103651232742 11.571970726605928 9.803376398036741 3.267792132678908 3.267792132678908 0.0 0.0 0.4891044501540252 0.8722252213961303
160 54.86928498155487 56.884217974176146 11.218746352382619 9.901901968825973 3.3006339896086865 3.3006339896086865 0.0 0.0 0.6466947184788655 0.7627489371290798
161 30.119334396783252 13.682456577044945 36.1849188827652 9.901901968825973 3.3006339896086865 3.3006339896086865 0.0 0.0 0.6377575578887067 0.7702371695496348
162 4.35832302498756 57.654141106302816 12.341928401313059 10.001417738063669 3.333805912687861 3.333805912687861 0.0 0.0 0.6701572236966805 0.7422191694689361
163 45.41232235671266 58.30167976895705 33.254925786945925 10.001417738063669 3.333805912687861 3.333805912687861 0.0 -0.0 0.7797338016261434 0.6261111711203069
164 48.587304249590325 46.18839421201412 39.42064857778997 10.101933657409761 3.3673112191365866 3.3673112191365866 0.0 0.0 0.6966086930688543 0.7174512727293072
165 58.1077846135686 37.15129334183221 17.30534561407163 10.101933657409761 3.3673112191365866 3.3673112191365866 0.0 -0.0 0.8994069955971553 0.43711217813153935
7_T 29.431775555201128 -1.4039427368808788 32.33417930476365 3.642706162826172 1.2142353876087237 1.2142353876087237 0.0 -0.0 0.7603958793842515 0.6494598575858641
9_B 49.95991006073637 61.658495320879524 51.825036724182496 3.7162937086389944 1.238764569546333 1.238764569546333 0.0 -0.0 0.7176002965020949 0.6964551776389529
12_R 62.484173338707194 11.591002726443348 25.316282705177642 3.8294717015699224 1.2764905671899887 1.2764905671899887 0.0 0.0 0.2746680171135514 0.9615391205639581
20_T 30.438256097714696 -3.67632422629557 35.98524502211718 4.148417170337972 1.3828057234459978 1.3828057234459978 0.0 -0.0 0.7861857262579329 0.6179902942832407
22_B 13.708078832188365 61.556888826207704 26.59759070261064 4.232220756168737 1.4107402520562435 1.4107402520562435 0.0 -0.0 0.8910647246123514 0.45387625687131333
24_T 27.29445899695665 -2.5576216375374727 48.66592454358812 4.317717286732432 1.439239095577476 1.439239095577476 0.0 0.0 0.5255054740936084 0.8507902189715464
26_LB -1.1609349300089633 56.99513730265638 26.258768815819018 4.40494096178109 1.4683136539270432 1.4683136539270432 0.0 0.0 0.5361151400853296 0.8441448670526212
26_RT 59.739065069991035 -3.904862697343617 26.258768815819018 4.40494096178109 1.4683136539270432 1.4683136539270432 0.0 0.0 0.5361151400853296 0.8441448670526212
26_LT -1.1609349300089633 -3.904862697343617 26.258768815819018 4.40494096178109 1.4683136539270432 1.4683136539270432 0.0 0.0 0.5361151400853296 0.8441448670526212
27_R 60.90364096091711 21.646557414830383 25.415587156316466 4.449211354442889 1.4830704514809678 1.4830704514809678 0.0 -0.0 0.7297620279401082 0.6837012378054764
30_B 17.34586930178635 61.37274780843717 31.81450502881927 4.584710012703159 1.5282366709010684 1.5282366709010684 0.0 -0.0 0.8433777540022546 0.5373210995802349
31_T 53.22341614600307 -3.9546143680331625 37.50433052702841 4.6307871143632635 1.5435957047877797 1.5435957047877797 0.0 0.0 0.6952778540174372 0.7187410560924617
36_FT 39.368654371608606 -0.4922495445329247 1.089678955173357 4.868212646800607 1.6227375489335623 1.6227375489335623 0.0 -0.0 0.739632735620696 0.6730107104632479
36_BT 39.368654371608606 -0.4922495445329247 61.98967895517335 4.868212646800607 1.6227375489335623 1.6227375489335623 0.0 -0.0 0.739632735620696 0.6730107104632479
36_BB 39.368654371608606 60.407750455467074 61.98967895517335 4.868212646800607 1.6227375489335623 1.6227375489335623 0.0 -0.0 0.739632735620696 0.6730107104632479
37_T 20.987737908214516 -0.4700493549914455 17.23367203635863 4.917138997302275 1.6390463324341065 1.6390463324341065 0.0 0.0 0.5163603530767541 0.8563714064414165
40_L -0.4401406872455098 26.686180404910004 14.847996335028704 5.066888173849802 1.6889627246165795 1.6889627246165795 0.0 -0.0 0.8608342640850161 0.5088854191045453
43_R 63.60336111097726 52.73044353273643 35.670642664017315 5.22119789177894 1.7403992972596403 1.7403992972596403 0.0 -0.0 0.8971229945165649 0.4417808650333688
48_L -1.934621944278291 52.03050628100155 16.936244062826557 5.488894432086641 1.8296314773622149 1.8296314773622149 0.0 0.0 0.43861391052531945 0.8986756019241242
57_B 52.68997292571879 61.57624130061228 56.75403862860087 5.88688418445359 1.962294728151186 1.962294728151186 0.0 0.0 0.6906372933410847 0.7232013060320761