ITEM: TIMESTEP
597
ITEM: NUMBER OF ATOMS
258
ITEM: BOX BOUNDS ff ff ff
0 60.9
60.9 0
60.9 0
ITEM: ATOMS id x y z AsphericalShapeX AsphericalShapeY AsphericalShapeZ OrientationX OrientationY OrientationZ OrientationW
1 45.902821457330106 47.15059808370862 23.307739147955363 4.221155842202175 1.4070519474007301 1.4070519474007301 0.0 -0.0 0.7863642711635499 0.6177630881150306
2 5.807752524008068 21.214929031353858 22.042752345575686 4.263579163704605 1.4211930545681735 1.4211930545681735 0.0 -0.0 0.8896314041555925 0.4566792799549252
3 18.699924273751297 13.500918295972134 56.26308060037739 4.3064288466763285 1.4354762822254734 1.4354762822254734 0.0 0.0 0.631512325711268 0.7753658378305981
4 17.805966533202167 41.611188734033895 45.448443872041686 4.349709176121576 1.4499030587072024 1.4499030587072024 0.0 0.0 0.5765741652112841 0.8170448164029381
5 41.96446420801757 29.72587700838898 20.25068797076879 4.393424480109153 1.4644748267030536 1.4644748267030536 0.0 -0.0 0.8873914294477543 0.4610167577677315
6 26.766057780112284 14.227476119640967 22.770292699911856 4.437579130205919 1.479193043401979 1.479193043401979 0.0 0.0 0.643710445538684 0.7652691437033046
7 21.273361309780128 57.87831732154651 36.629164874719194 4.482177541913685 1.4940591806378865 1.4940591806378865 0.0 -0.0 0.7603958793842515 0.6494598575858641
8 42.617734335778934 35.63171682888878 15.225251342134158 4.527224175110786 1.5090747250369583 1.5090747250369583 0.0 -0.0 0.7854601334426244 0.6189122545016335
9 51.910945991639046 4.484673176158392 52.45447326535243 4.572723534498189 1.5242411781660645 1.5242411781660645 0.0 -0.0 0.7176002965020949 0.6964551776389529
10 44.4951015142131 15.358326018709448 10.604600724954992 4.61868017004961 1.5395600566832077 1.5395600566832077 0.0 0.0 0.38534345666417513 0.9227732226317065
11 20.6106958199082 37.315940449831125 0.09166886070398836 4.665098677466918 1.5550328924889825 1.5550328924889825 0.0 0.0 0.49983922045674145 0.866118209999765
12 11.058712139097224 16.195220191202402 24.651016838182287 4.711983698639522 1.5706612328798717 1.5706612328798717 0.0 0.0 0.2746680171135514 0.9615391205639581
13 8.768216167246266 48.18383004452279 16.004728096992167 4.759339922108809 1.5864466407029247 1.5864466407029247 0.0 -0.0 0.7886508549344257 0.614841303924191
14 6.3961523292411515 26.4412130798826 24.524023327692472 4.807172083536307 1.602390694512087 1.602390694512087 0.0 -0.0 0.7750680292508737 0.6318777967559605
15 26.42701323641393 43.91315901605566 20.526394584142 4.855484966178162 1.6184949887260889 1.6184949887260889 0.0 0.0 0.6340811782098568 0.7732664866913604
16 18.49620218342708 32.931477193895475 52.027453931525145 4.90428340136304 1.6347611337876538 1.6347611337876538 0.0 -0.0 0.7629176367612683 0.6464956918020424
17 18.95549994605923 27.550046845356476 35.29526006670612 4.95357226897481 1.6511907563249137 1.6511907563249137 0.0 0.0 0.6579222258448839 0.7530858813836
18 37.93734315909753 31.729404906190815 15.294084997352144 5.003356497941465 1.6677854993138164 1.6677854993138164 0.0 0.0 0.506211649243881 0.8624092799650234
19 16.16858910002694 9.423456676931952 38.620852083503756 5.053641066727454 1.6845470222424759 1.6845470222424759 0.0 0.0 0.6434542777811493 0.7654845474633303
20 30.78548025229658 49.81752184128179 35.75677533654435 5.104431003831459 1.7014770012771765 1.7014770012771765 0.0 -0.0 0.7861857262579329 0.6179902942832407
21 45.97103299882827 17.31767309894738 43.51975524075828 5.15573138828955 1.7185771294298384 1.7185771294298384 0.0 0.0 0.6069811502172251 0.7947162281474907
22 20.353986971921735 12.59062156710686 30.285651296752985 5.207547350182929 1.7358491167276324 1.7358491167276324 0.0 -0.0 0.8910647246123514 0.45387625687131333
23 40.96295465842131 57.4137855613581 45.158667569348594 5.259884071150996 1.7532946903836981 1.7532946903836981 0.0 -0.0 0.7582829367961579 0.651925599868416
24 27.08606975713227 5.969324778024583 48.5205833325882 5.312746784909407 1.7709155949698097 1.7709155949698097 0.0 0.0 0.5255054740936084 0.8507902189715464
25 13.68480820326447 1.5872115410502234 52.7021943776535 5.366140777773743 1.7887135925912199 1.7887135925912199 0.0 0.0 0.6637035342538496 0.7479957343587923
26 3.0675234265902525 48.01388783963038 30.024507357857964 5.420071389187466 1.8066904630624936 1.8066904630624936 0.0 0.0 0.5361151400853296 0.8441448670526212
27 2.458200701641319 31.815775246052027 31.087169399546323 5.474544012256922 1.824848004085629 1.824848004085629 0.0 -0.0 0.7297620279401082 0.6837012378054764
28 21.63332692242397 32.56376706428263 30.320924148487997 5.529564094289746 1.843188031429887 1.843188031429887 0.0 -0.0 0.9828164757017253 0.18458541407500267
29 45.67736247439138 32.19552359622224 30.099866335517806 5.5851371373399905 1.8617123791133459 1.8617123791133459 0.0 -0.0 0.8740853421614372 0.4857723897243679
30 19.450723099872913 58.96219658413407 28.317072171324654 5.6412686987582426 1.8804228995860963 1.8804228995860963 0.0 -0.0 0.8433777540022546 0.5373210995802349
31 58.45658882345647 44.24573255435789 33.087119285179256 5.697964391747382 1.8993214639158358 1.8993214639158358 0.0 0.0 0.6952778540174372 0.7187410560924617
32 55.954286785335306 37.70683186138397 34.488979338919066 5.755229885924138 1.9184099619747272 1.9184099619747272 0.0 0.0 0.6353234605105568 0.7722461398575527
33 27.403523359575196 26.859612758143932 24.560767685079274 5.813070907885492 1.9376903026284662 1.9376903026284662 0.0 0.0 0.6411270229476993 0.7674347792784871
34 21.35595494106188 21.90974817186884 19.71553642534085 5.8714932417817645 1.957164413927298 1.957164413927298 0.0 -0.0 0.7453722743584635 0.6666484625480594
35 20.81474242141792 48.72081698201278 42.12314209145233 5.930502729895243 1.9768342432984465 1.9768342432984465 0.0 -0.0 0.7109313362059317 0.7032614273514853
36 43.2678641542297 4.659528743878756 1.0103652066515971 5.990105273223782 1.996701757741304 1.996701757741304 0.0 -0.0 0.739632735620696 0.6730107104632479
37 24.534750898186015 53.91321445311804 21.516932675201552 6.0503068320715565 2.016768944023867 2.016768944023867 0.0 0.0 0.5163603530767541 0.8563714064414165
38 17.584225922594765 14.882831290584003 17.31050139330001 6.111113426644332 2.03703780888141 2.03703780888141 0.0 0.0 0.5145463711011363 0.8574625542766586
39 7.612777306997707 37.36112996306994 23.46799488943657 6.172531137652364 2.057510379217455 2.057510379217455 0.0 0.0 0.5880831456971182 0.8088004783300898
40 59.92695669312226 21.07316674027171 14.763159300052598 6.234566106918078 2.0781887023060017 2.0781887023060017 0.0 -0.0 0.8608342640850161 0.5088854191045453
41 13.450021180658212 21.37671471633788 33.53886367464008 6.297224537989828 2.099074845996596 2.099074845996596 0.0 0.0 0.5813114541301716 0.8136811373609846
42 12.418215582850376 2.924776231408487 38.39001217883712 6.360512696763058 2.1201708989210517 2.1201708989210517 0.0 0.0 0.6858728758951139 0.7277213739552836
43 58.13404558622101 39.442394863059185 39.38050626217593 6.424436912106626 2.141478970702186 2.141478970702186 0.0 -0.0 0.8971229945165649 0.4417808650333688
44 41.183848621699646 16.13354326330102 26.799291534795348 6.489003576494941 2.1630011921649643 2.1630011921649643 0.0 -0.0 0.7662793896249596 0.6425075073771507
45 43.96684746452801 49.39086273529959 42.80975940474067 6.554219146648564 2.184739715549486 2.184739715549486 0.0 -0.0 0.8021859139948743 0.5970743332184094
46 13.534300846957033 45.866836763970745 14.81947099265097 6.6200901441784765 2.206696714726194 2.206696714726194 0.0 0.0 0.6689296931602822 0.7433256793683982
47 48.050329324692775 23.2135765364256 16.614930456318362 6.686623156239796 2.2288743854132655 2.2288743854132655 0.0 -0.0 0.8121614142020023 0.5834328044268712
48 60.67054223190951 45.9805992326847 13.595606031635418 6.753824836188914 2.2512749453963057 2.2512749453963057 0.0 0.0 0.43861391052531945 0.8986756019241242
49 24.563177630999665 4.044750110355618 6.561438230167005 6.821701904249768 2.273900634749928 2.273900634749928 0.0 -0.0 0.7611420715427216 0.6485851886434459
50 25.8567034632051 18.3366642785203 59.85297993185366 6.890261148185917 2.2967537160619447 2.2967537160619447 0.0 0.0 0.5689873473401131 0.8223462765568174
51 45.820928554567246 23.138506056342614 39.22173749761297 6.959509423978765 2.3198364746595743 2.3198364746595743 0.0 -0.0 0.9816329176571261 0.1907794930592849
52 32.07229546471924 13.197804604296595 18.29006557167637 7.029453656513624 2.343151218837838 2.343151218837838 0.0 -0.0 0.8312938914163103 0.5558331279205367
53 10.687715587067956 58.407260220862106 7.584089085136759 7.100100840271837 2.3667002800906625 2.3667002800906625 0.0 0.0 0.4937832216878833 0.8695850332081013
54 37.97114040106564 50.45731656132121 41.36609978214542 7.171458040031019 2.3904860133436703 2.3904860133436703 0.0 -0.0 0.7425013715714329 0.6698445440656666
55 26.468686213058245 44.698163049697 15.575009215009672 7.171458040031019 2.3904860133436703 2.3904860133436703 0.0 -0.0 0.899222239431846 0.4374921303419936
56 39.71192580121283 10.266680405811144 18.39886380615888 7.243532391570467 2.414510797190159 2.414510797190159 0.0 0.0 0.591041689671776 0.8066410112744902
57 54.32439808890366 60.144658438476164 56.77447399055898 7.243532391570467 2.414510797190159 2.414510797190159 0.0 0.0 0.6906372933410847 0.7232013060320761
58 27.475234385010285 36.44621493188958 34.15222524581545 7.316331102385306 2.438777034128432 2.438777034128432 0.0 -0.0 0.9778925487455288 0.20910801779935065
59 35.66502347613292 55.12998618231248 20.272599577717543 7.316331102385306 2.438777034128432 2.438777034128432 0.0 -0.0 0.8334397726994561 0.5526103014626843
60 50.85097699645422 27.47606751429797 53.65685750717462 7.389861452407536 2.4632871508024716 2.4632871508024716 0.0 -0.0 0.8251393648538317 0.5649292243888745
61 9.033156675149096 10.266648670370135 41.007827487813515 7.389861452407536 2.4632871508024716 2.4632871508024716 0.0 -0.0 0.8342848482439009 0.5513336485202505
62 20.603914169563904 6.354620289216884 42.26322141495908 7.464130794733034 2.488043598244306 2.488043598244306 0.0 0.0 0.6993489688984815 0.7147803996337831
63 35.30336619975885 2.0870605090017564 50.55608373637554 7.464130794733034 2.488043598244306 2.488043598244306 0.0 0.0 0.6638694557235675 0.747848477806363
64 39.34136853946865 33.10406631931833 44.54530760838992 7.539146556358203 2.5130488521193923 2.5130488521193923 0.0 0.0 0.5469534661185369 0.8371630103515794
65 18.4685874316294 26.707810947958166 7.989304697523792 7.539146556358203 2.5130488521193923 2.5130488521193923 0.0 0.0 0.534266604389083 0.8453160328744268
66 24.588128120135828 46.64334652034413 31.930813787217517 7.614916238921446 2.5383054129738567 2.5383054129738567 0.0 0.0 0.49259387534365895 0.8702593142126752
67 53.93980114383312 15.066530148550225 11.435529556847687 7.614916238921446 2.5383054129738567 2.5383054129738567 0.0 -0.0 0.7991221049958454 0.6011687461162707
68 37.99317193306778 20.692832421516183 23.144183191136957 7.6914474194546925 2.5638158064849077 2.5638158064849077 0.0 -0.0 0.8113628171424923 0.5845428803420658
69 35.71592869047456 11.746484496149423 57.91892467040079 7.6914474194546925 2.5638158064849077 2.5638158064849077 0.0 0.0 0.69974083585519 0.7143967823532522
70 11.416149975680865 59.638303538066346 16.634998578350356 7.768747751139302 2.5895825837131 2.5895825837131 0.0 -0.0 0.9226100212719841 0.3857340387475665
71 9.679563870864257 58.611561936371864 23.872498293618655 7.768747751139302 2.5895825837131 2.5895825837131 0.0 -0.0 0.8908476943010929 0.4543020862360491
72 7.646067851965894 43.70944601866907 10.020726516489283 7.846824964072916 2.6156083213576737 2.6156083213576737 0.0 -0.0 0.9180976465577227 0.39635427509384946
73 36.883048045815464 34.307642937731806 28.16214743231706 7.846824964072916 2.6156083213576737 2.6156083213576737 0.0 0.0 0.6852526383261238 0.7283054453092375
74 35.85215306500508 17.56348477733805 14.048385115943388 7.925686866042159 2.641895622014056 2.641895622014056 0.0 0.0 0.6622208999947843 0.7493086677799063
75 50.59721913574194 34.90251969327144 46.96865116113235 7.925686866042159 2.641895622014056 2.641895622014056 0.0 0.0 0.6669694181073614 0.7450850926636016
76 58.93108253188297 15.932152397096894 31.001403943840277 8.00534134330258 2.6684471144342483 2.6684471144342483 0.0 0.0 0.4849872773235938 0.8745212066235144
77 12.638946282815432 44.75129501372499 20.841880931623923 8.00534134330258 2.6684471144342483 2.6684471144342483 0.0 -0.0 0.724549744492829 0.6892225096116464
78 1.2270957393949187 11.299870979644933 12.987096350957959 8.085796361368617 2.695265453789537 2.695265453789537 0.0 0.0 0.646327957303847 0.7630597431442944
79 1.4592171295724747 20.943342594161773 28.440849209593715 8.085796361368617 2.695265453789537 2.695265453789537 0.0 0.0 0.4210348644808628 0.9070444547493698
80 1.4357261214433912 9.078100350893136 21.721758258564844 8.167059965809042 2.7223533219363163 2.7223533219363163 0.0 0.0 0.5786941501693628 0.8155446527074768
81 53.47995769927617 51.0914125384611 26.772020730942085 8.167059965809042 2.7223533219363163 2.7223533219363163 0.0 0.0 0.683142879342022 0.730284743373632
82 9.162406237445499 8.642492453135779 5.863881349320463 8.249140283051787 2.7497134276838864 2.7497134276838864 0.0 0.0 0.3480344086077516 0.937481760049257
83 14.465188197692132 42.19053461324837 2.5071254835476973 8.249140283051787 2.7497134276838864 2.7497134276838864 0.0 -0.0 0.8280938516825816 0.560589486884571
84 32.891504638697135 22.2032949364363 5.874601007404998 8.332045521197058 2.7773485070657253 2.7773485070657253 0.0 -0.0 0.8521868438699086 0.5232375972109076
85 17.174968456254806 42.9230587469659 29.293083528327863 8.332045521197058 2.7773485070657253 2.7773485070657253 0.0 0.0 0.2683204071818837 0.9633297250109892
86 7.771314233373074 0.34337403822249446 58.45191072091416 8.415783970837998 2.805261323612662 2.805261323612662 0.0 0.0 0.5717525694490604 0.8204261083902665
87 8.709249314892418 52.16193903844817 45.837812866370676 8.415783970837998 2.805261323612662 2.805261323612662 0.0 -0.0 0.7407334016199733 0.6717990977401677
88 34.47418396627623 48.03766947225186 56.144603446020945 8.500364005889296 2.833454668629727 2.833454668629727 0.0 0.0 0.6524446383875427 0.7578363898885753
89 37.613869655450564 23.151078162779992 47.97345261699154 8.500364005889296 2.833454668629727 2.833454668629727 0.0 0.0 0.3815125934194192 0.9243636411404275
90 19.613850558470006 18.778136532153255 50.6086788562508 8.58579408442478 2.861931361474896 2.861931361474896 0.0 -0.0 0.7664413141092511 0.642314340511314
91 32.76610503098376 0.9068560708483413 29.441411318610804 8.58579408442478 2.861931361474896 2.861931361474896 0.0 -0.0 0.7164030651197486 0.6976866404676452
92 51.19207512376834 15.184230497370944 33.97932979423231 8.672082749523394 2.8906942498411152 2.8906942498411152 0.0 0.0 0.3159382626609752 0.9487797500931208
93 17.95347910924056 38.73308592529243 38.64583237335735 8.672082749523394 2.8906942498411152 2.8906942498411152 0.0 -0.0 0.807675111463051 0.5896277760783901
94 50.31707851286655 17.04847061460208 47.99019163576974 8.759238630123772 2.919746210041272 2.919746210041272 0.0 0.0 0.5856043209472178 0.8105970511221638
95 39.75309525351383 60.622958543033725 54.72316210382432 8.759238630123772 2.919746210041272 2.919746210041272 0.0 -0.0 0.8283891439806925 0.5601530381377355
96 43.75578339096715 8.54132805639394 39.73792105631712 8.847270441886653 2.9490901472955917 2.9490901472955917 0.0 0.0 0.6380161188650698 0.7700230074928626
97 25.160239096483323 1.2092986405419888 18.85468316973879 8.847270441886653 2.9490901472955917 2.9490901472955917 0.0 0.0 0.5652655734899162 0.8249089837231233
98 18.580303747294167 22.998188593606645 40.788053215880296 8.936186988066469 2.9787289960221166 2.9787289960221166 0.0 -0.0 0.9884337224668884 0.15165347437579585
99 49.040933581003 41.64608777705499 6.7801360325869435 8.936186988066469 2.9787289960221166 2.9787289960221166 0.0 0.0 0.644584962479319 0.7645326848117973
100 27.91407953603017 31.14174030081295 56.48009357815715 9.025997160391892 3.0086657201306704 3.0086657201306704 0.0 -0.0 0.7665764345255346 0.6421530736748979
101 16.1594694656917 27.01297854941642 1.4610890103522773 9.025997160391892 3.0086657201306704 3.0086657201306704 0.0 -0.0 0.7486465484609144 0.6629693397718779
102 40.594152676672735 44.29007554394745 12.708221217614584 9.116709939955008 3.0389033133183823 3.0389033133183823 0.0 -0.0 0.764238184631255 0.644934102952793
103 25.615303685625832 42.92949578443251 0.8018719559202567 9.116709939955008 3.0389033133183823 3.0389033133183823 0.0 -0.0 0.7262700822056904 0.6874094614514261
104 48.67724138380811 59.21275932849807 49.90990297646928 9.208334398109606 3.0694447993698075 3.0694447993698075 0.0 0.0 0.6864264585310771 0.7271992278794606
105 21.161243427410266 52.7694079513112 10.21637275370981 9.208334398109606 3.0694447993698075 3.0694447993698075 0.0 -0.0 0.8498704758576332 0.5269916263713497
106 11.898954996846678 15.211700723841357 49.76761383174576 9.300879697377358 3.1002932324591446 3.1002932324591446 0.0 -0.0 0.793590538753224 0.6084521811953406
107 41.814782993907215 51.437765780586815 18.380265643454067 9.300879697377358 3.1002932324591446 3.1002932324591446 0.0 -0.0 0.8299364941277125 0.5578578812878792
108 55.0561322138136 44.96220044146724 58.29763219367326 9.394355092365789 3.1314516974552293 3.1314516974552293 0.0 -0.0 0.7596155095013813 0.650372414640225
109 58.61566713545663 38.804842842054605 4.010774276928905 9.394355092365789 3.1314516974552293 3.1314516974552293 0.0 -0.0 0.746179639226726 0.6657446552571586
110 44.12692529177649 14.52432066608752 51.76109728427777 9.488769930692037 3.162923310230646 3.162923310230646 0.0 -0.0 0.7434755474029917 0.6687631198068729
111 31.81591508367806 42.92521141477791 25.438535290409284 9.488769930692037 3.162923310230646 3.162923310230646 0.0 -0.0 0.7635489887521677 0.6457499065238353
112 50.47478659111535 0.30414418827881906 13.823751228820253 9.584133653918679 3.1947112179729533 3.1947112179729533 0.0 -0.0 0.925703395166632 0.3782502137170186
113 20.608857365672858 7.671200753404866 10.55124990201742 9.584133653918679 3.1947112179729533 3.1947112179729533 0.0 -0.0 0.7476030998596368 0.6641457709571461
114 5.563636238268297 58.39009542058267 32.41734190891724 9.68045579849769 3.2268185994992 3.2268185994992 0.0 -0.0 0.7095009508808979 0.7047044775642494
115 27.47817080718777 12.481480392315762 53.16291131103378 9.68045579849769 3.2268185994992 3.2268185994992 0.0 0.0 0.692332939305712 0.7215782016887105
116 13.488168254853356 29.598895288527928 56.45664762618508 9.777745996723455 3.25924866557449 3.25924866557449 0.0 0.0 0.4838188577050026 0.8751681626573412
117 51.39603454699912 39.306066681661385 27.834382837494577 9.777745996723455 3.25924866557449 3.25924866557449 0.0 0.0 0.4072390243389004 0.9133216175343166
118 49.88911345777847 17.08514969902243 60.65034283933877 9.876013977697006 3.292004659232337 3.292004659232337 0.0 -0.0 0.9854258972554679 0.17010526452245991
119 38.60441525857408 28.278339836849295 0.05740059076749701 9.876013977697006 3.292004659232337 3.292004659232337 0.0 0.0 0.693566054094668 0.720393037589587
120 29.32639462889851 28.67451325207788 30.492864867159216 9.97526956829854 3.32508985609948 3.32508985609948 0.0 -0.0 0.8546373086497397 0.5192254526349123
121 0.5622384968242748 37.224476578693576 58.09056602788172 9.97526956829854 3.32508985609948 3.32508985609948 0.0 -0.0 0.738138054050796 0.6746496966293722
122 57.319927188492784 26.199705837480007 60.64170548817309 10.07552269416951 3.3585075647231855 3.3585075647231855 0.0 0.0 0.30497028615780525 0.9523618663936657
123 41.54163118824697 38.094033901815465 52.88389049259321 10.07552269416951 3.3585075647231855 3.3585075647231855 0.0 -0.0 0.8240326158671573 0.5665423620411186
124 7.568940960979397 49.091262985726345 0.2363905731261715 10.176783380706334 3.3922611269021044 3.3922611269021044 0.0 -0.0 0.7351480847541838 0.6779065521753388
125 60.33444307815173 0.820555686289773 50.815551699723414 10.176783380706334 3.3922611269021044 3.3922611269021044 0.0 0.0 0.6354145425399089 0.7721711980699606
126 32.97978178224991 1.2586553666706906 43.771715265160914 10.279061754061805 3.426353918020622 3.426353918020622 0.0 -0.0 0.9631928649301144 0.2688112812880415
127 56.48778015800066 21.564966165181275 42.85002495906857 10.279061754061805 3.426353918020622 3.426353918020622 0.0 0.0 0.6645731125154195 0.7472232451694524
128 9.365652657996673 44.338101828863095 53.604550476436174 10.382368042158449 3.460789347386148 3.460789347386148 0.0 -0.0 0.837305869343264 0.5467347447925007
129 33.518184418243884 0.2688451479606542 11.063260701882024 10.382368042158449 3.460789347386148 3.460789347386148 0.0 0.0 0.6718759690179156 0.7406636768846148
130 31.660633053902068 39.60493162764196 14.36735304529401 10.486712575711548 3.495570858570504 3.495570858570504 0.0 -0.0 0.8172568989423515 0.5762735124323614
131 3.6354403077094517 27.42615485312767 39.80046856586231 10.486712575711548 3.495570858570504 3.495570858570504 0.0 0.0 0.5650588956672867 0.8250505708302167
132 24.642752882821256 59.67805823421249 54.09755845292152 10.592105789261101 3.5307019297537168 3.5307019297537168 0.0 0.0 0.5632303093681869 0.8262999568008076
133 9.172818897729593 39.19693819549723 35.95102808886066 10.592105789261101 3.5307019297537168 3.5307019297537168 0.0 0.0 0.7047758212396541 0.7094300823872436
134 0.012195787406952263 37.265990239319585 48.96414429545862 10.698558222216256 3.5661860740720757 3.5661860740720757 0.0 -0.0 0.7457546235329385 0.6662207152882933
135 40.71035958655823 46.2323461844819 60.705718595017224 10.698558222216256 3.5661860740720757 3.5661860740720757 0.0 0.0 0.5807371118896761 0.8140911539097067
136 20.429341147542097 6.225288977877522 0.8408155088889714 10.806080519909202 3.602026839969749 3.602026839969749 0.0 -0.0 0.7765636880913803 0.6300387593933514
137 0.7859800859006019 43.57598923417394 23.29472977034415 10.806080519909202 3.602026839969749 3.602026839969749 0.0 -0.0 0.9207785641385271 0.39008567754147583
138 50.17114983456298 19.592539970691007 27.241507011835125 10.914683434659278 3.63822781155306 3.63822781155306 0.0 0.0 0.5933031767685688 0.8049790931672228
139 6.719931431798462 12.402016004303762 60.16649059906206 10.914683434659278 3.63822781155306 3.63822781155306 0.0 0.0 0.36293328461656904 0.9318151270061183
140 59.44667377664946 57.059395513547486 43.96123680438606 11.024377826848589 3.6747926089495233 3.6747926089495233 0.0 0.0 0.5657838974393875 0.8245535649054563
141 20.041791612330506 43.11992346024704 55.31100638997019 11.024377826848589 3.6747926089495233 3.6747926089495233 0.0 0.0 0.5898626798291705 0.8075035720941112
142 6.091185343733901 21.19623463503151 6.951990652013526 11.135174666007199 3.7117248886691243 3.7117248886691243 0.0 0.0 0.494526605223718 0.8691624915548904
143 30.232663202887387 0.2840856639878808 60.58777143334802 11.135174666007199 3.7117248886691243 3.7117248886691243 0.0 0.0 0.6621201748514545 0.7493976741721844
144 10.724467068177013 27.734009650928048 46.86663756494924 11.247085031911997 3.749028343970724 3.749028343970724 0.0 -0.0 0.8358120424685423 0.5490156916378287
145 7.055033968677595 23.08505058208664 15.754471645849543 11.247085031911997 3.749028343970724 3.749028343970724 0.0 -0.0 0.7380766977143534 0.6747168208152773
146 21.203658548668354 56.26922453689003 47.663410031128926 11.360120115692517 3.7867067052308916 3.7867067052308916 0.0 0.0 0.5600689403365469 0.8284460043179022
147 37.93163459854444 22.787469157604924 34.68880601875195 11.360120115692517 3.7867067052308916 3.7867067052308916 0.0 -0.0 0.8053653384335279 0.5927787712543771
148 1.473467067540788 20.86961943772867 53.54245508748934 11.474291220951603 3.8247637403172265 3.8247637403172265 0.0 -0.0 0.9475491048281723 0.31961022189430877
149 44.28163942435078 57.6054525922148 25.546496604440424 11.474291220951603 3.8247637403172265 3.8247637403172265 0.0 -0.0 0.8855269061838191 0.46458809543994295
150 16.76363026386594 30.828097600541085 21.83054614123456 11.589609764894599 3.8632032549648683 3.8632032549648683 0.0 -0.0 0.8997163709941051 0.43647502994466686
151 32.33959967898065 29.083999446326196 39.459920854786354 11.589609764894599 3.8632032549648683 3.8632032549648683 0.0 0.0 0.6949034215940625 0.7191030765174521
152 59.51579849262816 4.922862038040117 60.027184649343724 11.70608727947216 3.9020290931573647 3.9020290931573647 0.0 0.0 0.6496096252583186 0.7602679361723385
153 32.42625225095747 45.14421061528569 6.392807062886522 11.70608727947216 3.9020290931573647 3.9020290931573647 0.0 0.0 0.6980264017745981 0.7160720232110785
154 39.34730116978189 16.163815629483956 5.98080464121818 11.823735412532551 3.941245137510816 3.941245137510816 0.0 -0.0 0.9126309719920443 0.4087844284716046
155 21.956618285256102 34.25305875372339 7.583921782079004 11.823735412532551 3.941245137510816 3.941245137510816 0.0 0.0 0.34897032679986184 0.9371337743423815
156 33.19132963588064 41.09229667569107 48.90144187380712 11.942565928987616 3.9808553096624513 3.9808553096624513 0.0 0.0 0.6995675014656925 0.7145665195718649
157 26.90374128683768 29.437113679373596 45.918532847101595 11.942565928987616 3.9808553096624513 3.9808553096624513 0.0 0.0 0.63565327495599 0.7719746848425306
158 51.14674015007009 57.863010669258706 37.47493362380657 12.062590711987676 4.020863570662534 4.020863570662534 0.0 -0.0 0.7426985308561326 0.6696259345814963
159 26.206383747024802 22.33386231886797 13.158284450759115 12.062590711987676 4.020863570662534 4.020863570662534 0.0 0.0 0.4891044501540252 0.8722252213961303
160 48.44734307392801 0.6833152424652261 6.858677411339782 12.183821764111036 4.061273921370374 4.061273921370374 0.0 0.0 0.6466947184788655 0.7627489371290798
161 29.89186004037329 10.197779385037949 36.499587765782046 12.183821764111036 4.061273921370374 4.061273921370374 0.0 0.0 0.6377575578887067 0.7702371695496348
162 60.13764759795495 0.5323299642739261 7.379170496985526 12.306271208563874 4.102090402854596 4.102090402854596 0.0 0.0 0.6701572236966805 0.7422191694689361
163 40.15492885776703 5.695266057329988 33.18301919910545 12.306271208563874 4.102090402854596 4.102090402854596 0.0 -0.0 0.7797338016261434 0.6261111711203069
164 42.975326574609866 47.04505406554523 33.63261174856038 12.42995129039308 4.143317096797693 4.143317096797693 0.0 0.0 0.6966086930688543 0.7174512727293072
165 59.95265289404021 32.16283979493978 16.781663190127578 12.42995129039308 4.143317096797693 4.143317096797693 0.0 -0.0 0.8994069955971553 0.43711217813153935
7_T 21.273361309780128 -3.0216826784534874 36.629164874719194 4.482177541913685 1.4940591806378865 1.4940591806378865 0.0 -0.0 0.7603958793842515 0.6494598575858641
9_B 51.910945991639046 65.38467317615839 52.45447326535243 4.572723534498189 1.5242411781660645 1.5242411781660645 0.0 -0.0 0.7176002965020949 0.6964551776389529
11_Ba 20.6106958199082 37.315940449831125 60.99166886070399 4.665098677466918 1.5550328924889825 1.5550328924889825 0.0 0.0 0.49983922045674145 0.866118209999765
23_T 40.96295465842131 -3.486214438641902 45.158667569348594 5.259884071150996 1.7532946903836981 1.7532946903836981 0.0 -0.0 0.7582829367961579 0.651925599868416
25_B 13.68480820326447 62.48721154105022 52.7021943776535 5.366140777773743 1.7887135925912199 1.7887135925912199 0.0 0.0 0.6637035342538496 0.7479957343587923
30_T 19.450723099872913 -1.937803415865929 28.317072171324654 5.6412686987582426 1.8804228995860963 1.8804228995860963 0.0 -0.0 0.8433777540022546 0.5373210995802349
36_FB 43.2678641542297 65.55952874387876 1.0103652066515971 5.990105273223782 1.996701757741304 1.996701757741304 0.0 -0.0 0.739632735620696 0.6730107104632479
36_BT 43.2678641542297 4.659528743878756 61.9103652066516 5.990105273223782 1.996701757741304 1.996701757741304 0.0 -0.0 0.739632735620696 0.6730107104632479
36_BB 43.2678641542297 65.55952874387876 61.9103652066516 5.990105273223782 1.996701757741304 1.996701757741304 0.0 -0.0 0.739632735620696 0.6730107104632479
40_L -0.9730433068777415 21.07316674027171 14.763159300052598 6.234566106918078 2.0781887023060017 2.0781887023060017 0.0 -0.0 0.8608342640850161 0.5088854191045453
42_B 12.418215582850376 63.824776231408485 38.39001217883712 6.360512696763058 2.1201708989210517 2.1201708989210517 0.0 0.0 0.6858728758951139 0.7277213739552836
43_L -2.765954413778985 39.442394863059185 39.38050626217593 6.424436912106626 2.141478970702186 2.141478970702186 0.0 -0.0 0.8971229945165649 0.4417808650333688
48_L -0.2294577680904908 45.9805992326847 13.595606031635418 6.753824836188914 2.2512749453963057 2.2512749453963057 0.0 0.0 0.43861391052531945 0.8986756019241242
49_B 24.563177630999665 64.94475011035561 6.561438230167005 6.821701904249768 2.273900634749928 2.273900634749928 0.0 -0.0 0.7611420715427216 0.6485851886434459
50_F 25.8567034632051 18.3366642785203 -1.0470200681463382 6.890261148185917 2.2967537160619447 2.2967537160619447 0.0 0.0 0.5689873473401131 0.8223462765568174
53_T 10.687715587067956 -2.4927397791378922 7.584089085136759 7.100100840271837 2.3667002800906625 2.3667002800906625 0.0 0.0 0.4937832216878833 0.8695850332081013
57_T 54.32439808890366 -0.755341561523835 56.77447399055898 7.243532391570467 2.414510797190159 2.414510797190159 0.0 0.0 0.6906372933410847 0.7232013060320761
59_T 35.66502347613292 -5.77001381768752 20.272599577717543 7.316331102385306 2.438777034128432 2.438777034128432 0.0 -0.0 0.8334397726994561 0.5526103014626843
62_B 20.603914169563904 67.25462028921689 42.26322141495908 7.464130794733034 2.488043598244306 2.488043598244306 0.0 0.0 0.6993489688984815 0.7147803996337831
63_B 35.30336619975885 62.98706050900176 50.55608373637554 7.464130794733034 2.488043598244306 2.488043598244306 0.0 0.0 0.6638694557235675 0.747848477806363