ITEM: TIMESTEP
727
ITEM: NUMBER OF ATOMS
269
ITEM: BOX BOUNDS ff ff ff
0 60.9
60.9 0
60.9 0
ITEM: ATOMS id x y z AsphericalShapeX AsphericalShapeY AsphericalShapeZ OrientationX OrientationY OrientationZ OrientationW
1 46.139730081576296 50.74864053692982 21.10129800151893 5.138798416593963 1.7129328055313262 1.7129328055313262 0.0 -0.0 0.7863642711635499 0.6177630881150306
2 4.246591004585692 17.309245128113396 21.89461244717514 5.190444199292566 1.7301480664308173 1.7301480664308173 0.0 -0.0 0.8896314041555925 0.4566792799549252
3 18.412739105815348 12.411889441730983 55.713395036841206 5.242609030736387 1.7475363435788454 1.7475363435788454 0.0 0.0 0.631512325711268 0.7753658378305981
4 18.47599006072901 45.887436085008154 43.548190262619876 5.295298127452303 1.7650993758174736 1.7650993758174736 0.0 0.0 0.5765741652112841 0.8170448164029381
5 38.265031428543026 36.231479893479204 21.20209701253734 5.348516758393752 1.7828389194645964 1.7828389194645964 0.0 -0.0 0.8873914294477543 0.4610167577677315
6 21.244121705305332 9.180927177771274 27.679553595030757 5.4022702454680855 1.8007567484893678 1.8007567484893678 0.0 0.0 0.643710445538684 0.7652691437033046
7 18.89479026828061 55.555233499959016 39.18803441083281 5.456563964068834 1.8188546546895932 1.8188546546895932 0.0 -0.0 0.7603958793842515 0.6494598575858641
8 40.18028415879652 34.11532612837134 14.764449645845605 5.511403343613121 1.8371344478710891 1.8371344478710891 0.0 -0.0 0.7854601334426244 0.6189122545016335
9 50.532687144795716 6.48378863383648 51.72699142469091 5.566793868084754 1.855597956028253 1.855597956028253 0.0 -0.0 0.7176002965020949 0.6964551776389529
10 49.5719763147785 10.018813515069677 13.927168033713814 5.622741076582144 1.8742470255273855 1.8742470255273855 0.0 0.0 0.38534345666417513 0.9227732226317065
11 17.806591231952154 37.788358202774575 60.18916777595778 5.6792505638727695 1.8930835212909427 1.8930835212909427 0.0 0.0 0.49983922045674145 0.866118209999765
12 11.458422653665341 16.85888198587224 24.604399037495753 5.73632798095245 1.9121093269842002 1.9121093269842002 0.0 0.0 0.2746680171135514 0.9615391205639581
13 9.202220758926673 49.046032848417184 14.341860717454706 5.793979035610687 1.9313263452035605 1.9313263452035605 0.0 -0.0 0.7886508549344257 0.614841303924191
14 7.620647889041118 37.10598512254798 21.530633054630627 5.852209493000676 1.9507364976668862 1.9507364976668862 0.0 -0.0 0.7750680292508737 0.6318777967559605
15 28.185558647349012 46.40668991053427 20.135125803628195 5.911025176216883 1.9703417254056819 1.9703417254056819 0.0 0.0 0.6340811782098568 0.7732664866913604
16 19.074185276593788 32.289792307718294 49.938750944748136 5.970431966876756 1.9901439889588828 1.9901439889588828 0.0 -0.0 0.7629176367612683 0.6464956918020424
17 19.239196562280352 11.56708201562354 32.762668936511346 6.030435805708473 2.010145268569459 2.010145268569459 0.0 0.0 0.6579222258448839 0.7530858813836
18 36.31121281497067 30.018878561404605 18.30502821578267 6.091042693146094 2.030347564382038 2.030347564382038 0.0 0.0 0.506211649243881 0.8624092799650234
19 14.276974451937228 6.743738922270124 35.429883606333775 6.152258689929039 2.050752896643018 2.050752896643018 0.0 0.0 0.6434542777811493 0.7654845474633303
20 29.05714127161439 47.62029703273796 35.71520677314344 6.214089917707827 2.0713633059026515 2.0713633059026515 0.0 -0.0 0.7861857262579329 0.6179902942832407
21 46.41572108493858 16.42067542843572 47.10888629938663 6.276542559656801 2.092180853218939 2.092180853218939 0.0 0.0 0.6069811502172251 0.7947162281474907
22 14.41465428575587 10.744082812610403 30.236398287609553 6.339622861092258 2.113207620364075 2.113207620364075 0.0 -0.0 0.8910647246123514 0.45387625687131333
23 44.68718907749242 8.645728630818411 48.69918188081864 6.403337130096823 2.1344457100323257 2.1344457100323257 0.0 -0.0 0.7582829367961579 0.651925599868416
24 21.296082513706494 14.608635353755334 44.486123118233444 6.46769173815054 2.1558972460502086 2.1558972460502086 0.0 0.0 0.5255054740936084 0.8507902189715464
25 12.0344159772767 6.368609213984067 54.500238355070785 6.532693120768045 2.177564373589324 2.177564373589324 0.0 0.0 0.6637035342538496 0.7479957343587923
26 2.5216182892482197 52.612587617160955 31.493111808044826 6.598347778141296 2.1994492593804122 2.1994492593804122 0.0 0.0 0.5361151400853296 0.8441448670526212
27 4.849368851097463 32.87937982599118 31.223563551203434 6.664662275791068 2.221554091930325 2.221554091930325 0.0 -0.0 0.7297620279401082 0.6837012378054764
28 12.705975203138433 34.546742747095465 30.038671994781154 6.731643245222333 2.24388108174073 2.24388108174073 0.0 -0.0 0.9828164757017253 0.18458541407500267
29 45.97126221669513 25.99331027138402 27.77929561898954 6.799297384587848 2.2664324615292983 2.2664324615292983 0.0 -0.0 0.8740853421614372 0.4857723897243679
30 22.411000447426947 58.6758939731208 22.526507973901683 6.867631459357893 2.2892104864526464 2.2892104864526464 0.0 -0.0 0.8433777540022546 0.5373210995802349
31 58.92400099865953 41.83184115575795 31.07188872332883 6.936652302996805 2.312217434332329 2.312217434332329 0.0 0.0 0.6952778540174372 0.7187410560924617
32 53.55138820333319 38.696910146853 33.85120534832089 7.006366817646808 2.3354556058822835 2.3354556058822835 0.0 0.0 0.6353234605105568 0.7722461398575527
33 28.989125881958685 16.582862943449907 23.191654051893995 7.076781974817153 2.3589273249390006 2.3589273249390006 0.0 0.0 0.6411270229476993 0.7674347792784871
34 19.965044827031512 16.03831372502469 23.437951174496853 7.14790481608214 2.382634938694109 2.382634938694109 0.0 -0.0 0.7453722743584635 0.6666484625480594
35 21.96493604072505 39.53838513373047 37.07095078744799 7.219742453785481 2.4065808179285453 2.4065808179285453 0.0 -0.0 0.7109313362059317 0.7032614273514853
36 38.958589235941055 3.86843527731606 59.81892756530032 7.292302071750682 2.4307673572502897 2.4307673572502897 0.0 -0.0 0.739632735620696 0.6730107104632479
37 26.967230465422446 50.34904124304457 26.81380482750264 7.365590926000187 2.4551969753334104 2.4551969753334104 0.0 0.0 0.5163603530767541 0.8563714064414165
38 16.490828023023884 12.85336561541429 16.78401956022824 7.439616345480086 2.4798721151599756 2.4798721151599756 0.0 0.0 0.5145463711011363 0.8574625542766586
39 11.517068351235025 39.88741104317853 25.9216224471246 7.5143857327941825 2.5047952442647277 2.5047952442647277 0.0 0.0 0.5880831456971182 0.8088004783300898
40 57.584597748048814 15.823638422755492 12.964135055253506 7.589906564943756 2.529968854981247 2.529968854981247 0.0 -0.0 0.8608342640850161 0.5088854191045453
41 7.465079936965177 15.944533708726002 31.04878473031247 7.666186394074573 2.5553954646915304 2.5553954646915304 0.0 0.0 0.5813114541301716 0.8136811373609846
42 13.84381502369352 55.62369832442353 40.928431079686675 7.7432328482332515 2.581077616077802 2.581077616077802 0.0 0.0 0.6858728758951139 0.7277213739552836
43 60.31427106423189 42.58751364792781 40.39090903319373 7.821053632129833 2.607017877376569 2.607017877376569 0.0 -0.0 0.8971229945165649 0.4417808650333688
44 44.483554039352136 15.69198181436532 23.018549745101954 7.899656527906858 2.6332188426356034 2.6332188426356034 0.0 -0.0 0.7662793896249596 0.6425075073771507
45 47.824508076872895 57.91648162061526 41.47383489693196 7.979049395920025 2.6596831319732868 2.6596831319732868 0.0 -0.0 0.8021859139948743 0.5970743332184094
46 16.752008103940323 55.989648249174934 13.57051822479152 8.059240175521595 2.6864133918405844 2.6864133918405844 0.0 0.0 0.6689296931602822 0.7433256793683982
47 48.10813181903178 33.55826635426183 18.128456060023932 8.140236885857155 2.7134122952857145 2.7134122952857145 0.0 -0.0 0.8121614142020023 0.5834328044268712
48 0.059663061724172864 47.353454897343774 13.395244982902119 8.222047626664766 2.74068254222159 2.74068254222159 0.0 0.0 0.43861391052531945 0.8986756019241242
49 24.454412438572298 60.129580186948374 9.047269354154055 8.304680579086698 2.768226859695544 2.768226859695544 0.0 -0.0 0.7611420715427216 0.6485851886434459
50 25.96035320086228 26.379308641053896 60.35904698201421 8.388144006487199 2.7960480021623626 2.7960480021623626 0.0 0.0 0.5689873473401131 0.8223462765568174
51 46.64968941226614 26.63143232472959 41.2924233404684 8.472446255278467 2.8241487517595063 2.8241487517595063 0.0 -0.0 0.9816329176571261 0.1907794930592849
52 35.77496708841001 9.279350159147102 20.51473751938688 8.557595755755749 2.8525319185852127 2.8525319185852127 0.0 -0.0 0.8312938914163103 0.5558331279205367
53 8.530418521190573 53.880924858860794 3.628954033065068 8.643601022939668 2.8812003409799427 2.8812003409799427 0.0 0.0 0.4937832216878833 0.8695850332081013
54 39.4948255129455 49.28577213746166 40.511797944324094 8.730470657429114 2.910156885809684 2.910156885809684 0.0 -0.0 0.7425013715714329 0.6698445440656666
55 22.301077574661225 38.783820110895896 17.138036869819622 8.730470657429114 2.910156885809684 2.910156885809684 0.0 -0.0 0.899222239431846 0.4374921303419936
56 43.1410347226794 2.907116668276337 17.757833632972652 8.818213346259698 2.9394044487532556 2.9394044487532556 0.0 0.0 0.591041689671776 0.8066410112744902
57 50.9980194016556 60.639249389657756 54.26110411821838 8.818213346259698 2.9394044487532556 2.9394044487532556 0.0 0.0 0.6906372933410847 0.7232013060320761
58 26.960837477585496 40.711026256154476 31.333581864575653 8.906837863773477 2.9689459545911334 2.9689459545911334 0.0 -0.0 0.9778925487455288 0.20910801779935065
59 33.6507777935994 57.52698988198772 23.85211231037204 8.906837863773477 2.9689459545911334 2.9689459545911334 0.0 -0.0 0.8334397726994561 0.5526103014626843
60 51.59536423507696 22.985797422722648 54.55522339024179 8.996353072496161 2.998784357498661 2.998784357498661 0.0 -0.0 0.8251393648538317 0.5649292243888745
61 5.01088739576326 13.154593462533184 41.72907925036514 8.996353072496161 2.998784357498661 2.998784357498661 0.0 -0.0 0.8342848482439009 0.5513336485202505
62 17.98430559622128 8.51689483670483 39.80299963440088 9.086767924022775 3.028922641340893 3.028922641340893 0.0 0.0 0.6993489688984815 0.7147803996337831
63 32.24260928061979 9.636322507827906 48.12184773999865 9.086767924022775 3.028922641340893 3.028922641340893 0.0 0.0 0.6638694557235675 0.747848477806363
64 43.97672199131053 29.88681317719578 46.84690932459669 9.178091459914258 3.0593638199714386 3.0593638199714386 0.0 0.0 0.5469534661185369 0.8371630103515794
65 8.48192523117331 27.588671326648914 6.452742816929416 9.178091459914258 3.0593638199714386 3.0593638199714386 0.0 0.0 0.534266604389083 0.8453160328744268
66 23.57779943225777 57.50060871557765 32.18363323781853 9.27033281260008 3.090110937533391 3.090110937533391 0.0 0.0 0.49259387534365895 0.8702593142126752
67 53.60811564456324 15.174789677213205 6.7626039033418985 9.27033281260008 3.090110937533391 3.090110937533391 0.0 -0.0 0.7991221049958454 0.6011687461162707
68 35.780727473354155 22.39841917352594 24.39718363632954 9.36350120629269 3.1211670687642408 3.1211670687642408 0.0 -0.0 0.8113628171424923 0.5845428803420658
69 34.68395806992846 13.141480128584528 54.512963851560045 9.36350120629269 3.1211670687642408 3.1211670687642408 0.0 0.0 0.69974083585519 0.7143967823532522
70 7.44389340415297 1.551419428115552 16.04716349480697 9.457605957908621 3.1525353193029257 3.1525353193029257 0.0 -0.0 0.9226100212719841 0.3857340387475665
71 14.7108873935272 0.1709617277275005 24.646713843463207 9.457605957908621 3.1525353193029257 3.1525353193029257 0.0 -0.0 0.8908476943010929 0.4543020862360491
72 11.573313016684036 45.052980671596195 9.14003810037322 9.552656478001895 3.1842188260006505 3.1842188260006505 0.0 -0.0 0.9180976465577227 0.39635427509384946
73 38.88285846310696 40.17216302833729 29.848177804680706 9.552656478001895 3.1842188260006505 3.1842188260006505 0.0 0.0 0.6852526383261238 0.7283054453092375
74 41.522058612209236 19.637792219127874 15.465156147843961 9.648662271703502 3.2162207572345043 3.2162207572345043 0.0 0.0 0.6622208999947843 0.7493086677799063
75 51.20267046033352 37.32135036903537 44.92340254591542 9.648662271703502 3.2162207572345043 3.2162207572345043 0.0 0.0 0.6669694181073614 0.7450850926636016
76 2.4616482967805338 10.337242469447416 30.824834191859917 9.745632939672701 3.2485443132243077 3.2485443132243077 0.0 0.0 0.4849872773235938 0.8745212066235144
77 14.39496595324186 50.79186804991111 18.68643387427105 9.745632939672701 3.2485443132243077 3.2485443132243077 0.0 -0.0 0.724549744492829 0.6892225096116464
78 4.321366486511222 14.906401388154237 16.786840047122652 9.84357817905756 3.28119272635248 3.28119272635248 0.0 0.0 0.646327957303847 0.7630597431442944
79 0.7866832199633819 27.703170186816088 27.045086238715275 9.84357817905756 3.28119272635248 3.28119272635248 0.0 0.0 0.4210348644808628 0.9070444547493698
80 3.00347869117644 0.0007321135617601726 23.921533138367778 9.942507784463096 3.3141692614877063 3.3141692614877063 0.0 0.0 0.5786941501693628 0.8155446527074768
81 57.016603425961634 56.60432355645005 25.684213022003117 9.942507784463096 3.3141692614877063 3.3141692614877063 0.0 0.0 0.683142879342022 0.730284743373632
82 12.66827899999521 58.447845901647895 5.994447315400488 10.04243164893252 3.347477216310817 3.347477216310817 0.0 0.0 0.3480344086077516 0.937481760049257
83 14.98446700297879 41.88576870916515 3.96661492773337 10.04243164893252 3.347477216310817 3.347477216310817 0.0 -0.0 0.8280938516825816 0.560589486884571
84 34.45472304421556 18.334281402567367 4.224785330658351 10.143359764935633 3.3811199216452312 3.3811199216452312 0.0 -0.0 0.8521868438699086 0.5232375972109076
85 18.81675105612542 47.59434151192779 25.42038823331378 10.143359764935633 3.3811199216452312 3.3811199216452312 0.0 0.0 0.2683204071818837 0.9633297250109892
86 6.266468807441749 58.07017371393405 55.7603611151478 10.245302225367992 3.415100741789307 3.415100741789307 0.0 0.0 0.5717525694490604 0.8204261083902665
87 8.576325347404582 60.7935052223709 43.74753684727725 10.245302225367992 3.415100741789307 3.415100741789307 0.0 -0.0 0.7407334016199733 0.6717990977401677
88 35.40297200159808 46.55425844447541 54.96981582174703 10.348269224560795 3.4494230748535792 3.4494230748535792 0.0 0.0 0.6524446383875427 0.7578363898885753
89 38.703199554362655 14.54844922308683 44.26388273590322 10.348269224560795 3.4494230748535792 3.4494230748535792 0.0 0.0 0.3815125934194192 0.9243636411404275
90 19.583417392153123 17.600660387653317 50.42549360399387 10.452271059299758 3.4840903530998886 3.4840903530998886 0.0 -0.0 0.7664413141092511 0.642314340511314
91 29.09748717484949 1.8110119705971401 28.051247716296423 10.452271059299758 3.4840903530998886 3.4840903530998886 0.0 -0.0 0.7164030651197486 0.6976866404676452
92 54.605000066179564 17.463826030127624 36.57556307928691 10.557318129854668 3.5191060432848347 3.5191060432848347 0.0 0.0 0.3159382626609752 0.9487797500931208
93 17.50798573332889 25.544602522044382 32.60418521187452 10.557318129854668 3.5191060432848347 3.5191060432848347 0.0 -0.0 0.807675111463051 0.5896277760783901
94 52.738459807478755 14.598144656137627 46.03259812131027 10.663420941020323 3.5544736470067506 3.5544736470067506 0.0 0.0 0.5856043209472178 0.8105970511221638
95 43.51078078130151 60.68349878155708 53.35229700986306 10.663420941020323 3.5544736470067506 3.5544736470067506 0.0 -0.0 0.8283891439806925 0.5601530381377355
96 46.161961809876544 12.376839093310391 38.63299986374675 10.770590103166459 3.5901967010555076 3.5901967010555076 0.0 0.0 0.6380161188650698 0.7700230074928626
97 27.713516005597974 60.66475740217116 17.46899423479689 10.770590103166459 3.5901967010555076 3.5901967010555076 0.0 0.0 0.5652655734899162 0.8249089837231233
98 18.988448169447114 22.314790639233664 39.47668912711546 10.878836333298226 3.6262787777660357 3.6262787777660357 0.0 -0.0 0.9884337224668884 0.15165347437579585
99 49.64035511751182 35.63772353099707 7.697278380180298 10.878836333298226 3.6262787777660357 3.6262787777660357 0.0 0.0 0.644584962479319 0.7645326848117973
100 27.97240106935466 37.82657825983265 55.53518117979946 10.988170456129343 3.662723485376487 3.662723485376487 0.0 -0.0 0.7665764345255346 0.6421530736748979
101 19.030988280156258 19.927618371695477 60.50701159438868 10.988170456129343 3.662723485376487 3.662723485376487 0.0 -0.0 0.7486465484609144 0.6629693397718779
102 42.432383364867384 44.551785764197184 9.066837438582096 11.098603405162695 3.6995344683876112 3.6995344683876112 0.0 -0.0 0.764238184631255 0.644934102952793
103 25.68081914063112 44.73425171270659 0.7169830712179563 11.098603405162695 3.6995344683876112 3.6995344683876112 0.0 -0.0 0.7262700822056904 0.6874094614514261
104 50.553610738705366 60.205144213347175 47.1463430434704 11.210146223785614 3.7367154079284575 3.7367154079284575 0.0 0.0 0.6864264585310771 0.7271992278794606
105 20.820801462029205 43.45864259185887 11.574814752546851 11.210146223785614 3.7367154079284575 3.7367154079284575 0.0 -0.0 0.8498704758576332 0.5269916263713497
106 11.652510487339779 17.69160450987284 47.57496380431891 11.322810066372337 3.7742700221241763 3.7742700221241763 0.0 -0.0 0.793590538753224 0.6084521811953406
107 40.18760883780836 45.404580696894335 17.11218786068441 11.322810066372337 3.7742700221241763 3.7742700221241763 0.0 -0.0 0.8299364941277125 0.5578578812878792
108 51.86500717193401 41.823773399219945 56.25639784483477 11.436606199401737 3.8122020664672314 3.8122020664672314 0.0 -0.0 0.7596155095013813 0.650372414640225
109 59.52756911556241 39.9369972258674 4.285338971389441 11.436606199401737 3.8122020664672314 3.8122020664672314 0.0 -0.0 0.746179639226726 0.6657446552571586
110 41.3325305059591 20.01921111485887 52.154879006637614 11.551546002581517 3.8505153341938256 3.8505153341938256 0.0 -0.0 0.7434755474029917 0.6687631198068729
111 33.57783295616289 40.849929006069495 24.79246797226402 11.551546002581517 3.8505153341938256 3.8505153341938256 0.0 -0.0 0.7635489887521677 0.6457499065238353
112 55.06937073745499 59.19228183868156 17.350717203196577 11.667640969987952 3.8892136566627302 3.8892136566627302 0.0 -0.0 0.925703395166632 0.3782502137170186
113 19.285466527876093 8.011292626703364 8.751593260065988 11.667640969987952 3.8892136566627302 3.8892136566627302 0.0 -0.0 0.7476030998596368 0.6641457709571461
114 9.126454694459749 60.563275159476035 36.09912376932627 11.784902711214674 3.928300903738156 3.928300903738156 0.0 -0.0 0.7095009508808979 0.7047044775642494
115 27.545916864977023 16.76297850426439 52.96590143578185 11.784902711214674 3.928300903738156 3.928300903738156 0.0 0.0 0.692332939305712 0.7215782016887105
116 14.095531963509627 33.06549438103653 54.58678438689994 11.90334295253283 3.9677809841776535 3.9677809841776535 0.0 0.0 0.4838188577050026 0.8751681626573412
117 45.897903705288 39.596017627833575 24.389529550110016 11.90334295253283 3.9677809841776535 3.9677809841776535 0.0 0.0 0.4072390243389004 0.9133216175343166
118 44.196730981171754 16.629189193040652 60.74578688294476 12.02297353806592 4.007657846021975 4.007657846021975 0.0 -0.0 0.9854258972554679 0.17010526452245991
119 33.51418680157608 29.945181087644368 60.197541976290324 12.02297353806592 4.007657846021975 4.007657846021975 0.0 0.0 0.693566054094668 0.720393037589587
120 26.77977702053763 24.059427956617874 30.02750828241659 12.143806430972226 4.047935476990671 4.047935476990671 0.0 -0.0 0.8546373086497397 0.5192254526349123
121 59.8289455535125 40.73364971720284 54.39246438224041 12.143806430972226 4.047935476990671 4.047935476990671 0.0 -0.0 0.738138054050796 0.6746496966293722
122 59.04064851984302 24.347327730305434 0.23534230920173171 12.265853714641214 4.088617904880394 4.088617904880394 0.0 0.0 0.30497028615780525 0.9523618663936657
123 44.391821488825926 43.62981922641427 51.980277032298936 12.265853714641214 4.088617904880394 4.088617904880394 0.0 -0.0 0.8240326158671573 0.5665423620411186
124 5.6655486201458105 40.01274501577679 60.64446581692854 12.38912759390337 4.129709197967783 4.129709197967783 0.0 -0.0 0.7351480847541838 0.6779065521753388
125 0.1483611274159603 0.2601852257030363 49.65613426293173 12.38912759390337 4.129709197967783 4.129709197967783 0.0 0.0 0.6354145425399089 0.7721711980699606
126 37.38923568457037 60.34723755112565 43.513426237651416 12.51364039624916 4.171213465416413 4.171213465416413 0.0 -0.0 0.9631928649301144 0.2688112812880415
127 1.9710444117977395 28.625554867404844 36.83244223226984 12.51364039624916 4.171213465416413 4.171213465416413 0.0 0.0 0.6645731125154195 0.7472232451694524
128 8.222251432850221 47.53846500414927 49.37806982014073 12.639404573062455 4.213134857687484 4.213134857687484 0.0 -0.0 0.837305869343264 0.5467347447925007
129 35.40276161470079 57.8447261653348 12.996815316125186 12.639404573062455 4.213134857687484 4.213134857687484 0.0 0.0 0.6718759690179156 0.7406636768846148
130 29.512295336001294 35.6747615946737 15.38628891397918 12.766432700866167 4.255477566955415 4.255477566955415 0.0 -0.0 0.8172568989423515 0.5762735124323614
131 9.82825925262198 36.57077827186263 36.27318274807191 12.766432700866167 4.255477566955415 4.255477566955415 0.0 0.0 0.5650588956672867 0.8250505708302167
132 25.715291014652106 59.86315094476832 52.41795260028016 12.894737482578666 4.2982458275262765 4.2982458275262765 0.0 0.0 0.5632303093681869 0.8262999568008076
133 15.492528619877934 48.26067889361457 33.79282903485834 12.894737482578666 4.2982458275262765 4.2982458275262765 0.0 0.0 0.7047758212396541 0.7094300823872436
134 59.64133542523873 30.43389623077498 45.40271762792053 13.024331748784991 4.341443916261654 4.341443916261654 0.0 -0.0 0.7457546235329385 0.6662207152882933
135 41.217362468639614 40.380634762359676 1.1163591679773526 13.024331748784991 4.341443916261654 4.341443916261654 0.0 0.0 0.5807371118896761 0.8140911539097067
136 20.87273363159436 0.5014738068522377 60.72683591109698 13.155228459019813 4.385076153006667 4.385076153006667 0.0 -0.0 0.7765636880913803 0.6300387593933514
137 1.408095798325944 43.05241641041538 21.4867569685919 13.155228459019813 4.385076153006667 4.385076153006667 0.0 -0.0 0.9207785641385271 0.39008567754147583
138 56.23997177470707 17.494723616950484 24.51508159955917 13.2874407030634 4.429146901021101 4.429146901021101 0.0 0.0 0.5933031767685688 0.8049790931672228
139 6.247311557629556 8.860770764585814 0.12143952671074768 13.2874407030634 4.429146901021101 4.429146901021101 0.0 0.0 0.36293328461656904 0.9318151270061183
140 0.049177246407417385 0.8144608083199264 40.47810973008708 13.420981702250462 4.473660567416814 4.473660567416814 0.0 0.0 0.5657838974393875 0.8245535649054563
141 18.42378217079592 44.37710195503084 54.80084028883126 13.420981702250462 4.473660567416814 4.473660567416814 0.0 0.0 0.5898626798291705 0.8075035720941112
142 7.232658405676415 14.183234168114193 8.262769170452993 13.555864810791356 4.5186216035971585 4.5186216035971585 0.0 0.0 0.494526605223718 0.8691624915548904
143 31.284913338301067 1.3897697341514474 60.80018533368992 13.555864810791356 4.5186216035971585 4.5186216035971585 0.0 0.0 0.6621201748514545 0.7493976741721844
144 9.693785519097682 33.16414140911613 45.73666885338809 13.69210351711019 4.564034505703494 4.564034505703494 0.0 -0.0 0.8358120424685423 0.5490156916378287
145 11.60461156334287 28.10172251916493 15.680633644884328 13.69210351711019 4.564034505703494 4.564034505703494 0.0 -0.0 0.7380766977143534 0.6747168208152773
146 17.860246877652088 60.54226561004527 46.79694152551225 13.82971144519081 4.609903815063694 4.609903815063694 0.0 0.0 0.5600689403365469 0.8284460043179022
147 37.41706700155967 16.879831554946886 32.93121833529147 13.82971144519081 4.609903815063694 4.609903815063694 0.0 -0.0 0.8053653384335279 0.5927787712543771
148 0.8844069040431124 19.345498863387014 52.62700528439269 13.968702355941083 4.656234118647027 4.656234118647027 0.0 -0.0 0.9475491048281723 0.31961022189430877
149 46.02330030863366 0.09093280101602375 25.243879078079722 13.968702355941083 4.656234118647027 4.656234118647027 0.0 -0.0 0.8855269061838191 0.46458809543994295
150 19.6266726067289 30.62037280099281 24.220698325083006 14.109090148567342 4.703030049522449 4.703030049522449 0.0 -0.0 0.8997163709941051 0.43647502994466686
151 33.08818867215729 32.94634982737629 37.54554778214303 14.109090148567342 4.703030049522449 4.703030049522449 0.0 0.0 0.6949034215940625 0.7191030765174521
152 56.9501708331406 60.724585933889664 59.47983332643562 14.250888861966127 4.75029628732202 4.75029628732202 0.0 0.0 0.6496096252583186 0.7602679361723385
153 32.27616281747146 42.432277240677735 6.626339669159363 14.250888861966127 4.75029628732202 4.75029628732202 0.0 0.0 0.6980264017745981 0.7160720232110785
154 37.470066616245326 10.495749046971364 8.152143061085702 14.394112676126584 4.798037558708861 4.798037558708861 0.0 -0.0 0.9126309719920443 0.4087844284716046
155 20.667170046921605 26.119640335509274 7.812009800613807 14.394112676126584 4.798037558708861 4.798037558708861 0.0 0.0 0.34897032679986184 0.9371337743423815
156 34.51939578269994 41.09842788745916 46.814098967022204 14.538775913550214 4.846258637849983 4.846258637849983 0.0 0.0 0.6995675014656925 0.7145665195718649
157 25.45696053060904 32.78433667809443 45.97567517175436 14.538775913550214 4.846258637849983 4.846258637849983 0.0 0.0 0.63565327495599 0.7719746848425306
158 52.562045882022254 60.34071353396793 33.39116504858605 14.684893040680725 4.894964346893474 4.894964346893474 0.0 -0.0 0.7426985308561326 0.6696259345814963
159 22.7253343591132 17.285904585949265 16.054741282426114 14.684893040680725 4.894964346893474 4.894964346893474 0.0 0.0 0.4891044501540252 0.8722252213961303
160 47.01258622249219 57.66435083500871 1.3449529404082732 14.832478669352627 4.944159556450904 4.944159556450904 0.0 0.0 0.6466947184788655 0.7627489371290798
161 27.383696026516823 6.918063450181129 36.850344263732296 14.832478669352627 4.944159556450904 4.944159556450904 0.0 0.0 0.6377575578887067 0.7702371695496348
162 60.74879650727136 60.84565799125091 9.14697426334126 14.981547558251613 4.9938491860838425 4.9938491860838425 0.0 0.0 0.6701572236966805 0.7422191694689361
163 37.95250688887198 60.18181461600655 33.39897011337642 14.981547558251613 4.9938491860838425 4.9938491860838425 0.0 -0.0 0.7797338016261434 0.6261111711203069
164 45.190561016600356 39.90699510306921 35.94013180824422 15.132114614391574 5.044038204797191 5.044038204797191 0.0 0.0 0.6966086930688543 0.7174512727293072
165 59.86342246875193 29.5305700903997 15.649162848870091 15.132114614391574 5.044038204797191 5.044038204797191 0.0 -0.0 0.8994069955971553 0.43711217813153935
7_T 18.89479026828061 -5.344766500040983 39.18803441083281 5.456563964068834 1.8188546546895932 1.8188546546895932 0.0 -0.0 0.7603958793842515 0.6494598575858641
11_F 17.806591231952154 37.788358202774575 -0.7108322240422211 5.6792505638727695 1.8930835212909427 1.8930835212909427 0.0 0.0 0.49983922045674145 0.866118209999765
25_B 12.0344159772767 67.26860921398406 54.500238355070785 6.532693120768045 2.177564373589324 2.177564373589324 0.0 0.0 0.6637035342538496 0.7479957343587923
26_R 63.421618289248215 52.612587617160955 31.493111808044826 6.598347778141296 2.1994492593804122 2.1994492593804122 0.0 0.0 0.5361151400853296 0.8441448670526212
30_T 22.411000447426947 -2.2241060268791983 22.526507973901683 6.867631459357893 2.2892104864526464 2.2892104864526464 0.0 -0.0 0.8433777540022546 0.5373210995802349
31_L -1.975999001340469 41.83184115575795 31.07188872332883 6.936652302996805 2.312217434332329 2.312217434332329 0.0 0.0 0.6952778540174372 0.7187410560924617
36_BB 38.958589235941055 64.76843527731606 59.81892756530032 7.292302071750682 2.4307673572502897 2.4307673572502897 0.0 -0.0 0.739632735620696 0.6730107104632479
36_FT 38.958589235941055 3.86843527731606 -1.0810724346996778 7.292302071750682 2.4307673572502897 2.4307673572502897 0.0 -0.0 0.739632735620696 0.6730107104632479
36_FB 38.958589235941055 64.76843527731606 -1.0810724346996778 7.292302071750682 2.4307673572502897 2.4307673572502897 0.0 -0.0 0.739632735620696 0.6730107104632479
40_L -3.315402251951184 15.823638422755492 12.964135055253506 7.589906564943756 2.529968854981247 2.529968854981247 0.0 -0.0 0.8608342640850161 0.5088854191045453
42_T 13.84381502369352 -5.27630167557647 40.928431079686675 7.7432328482332515 2.581077616077802 2.581077616077802 0.0 0.0 0.6858728758951139 0.7277213739552836
43_L -0.5857289357681097 42.58751364792781 40.39090903319373 7.821053632129833 2.607017877376569 2.607017877376569 0.0 -0.0 0.8971229945165649 0.4417808650333688
45_T 47.824508076872895 -2.9835183793847406 41.47383489693196 7.979049395920025 2.6596831319732868 2.6596831319732868 0.0 -0.0 0.8021859139948743 0.5970743332184094
46_T 16.752008103940323 -4.910351750825065 13.57051822479152 8.059240175521595 2.6864133918405844 2.6864133918405844 0.0 0.0 0.6689296931602822 0.7433256793683982
48_R 60.95966306172417 47.353454897343774 13.395244982902119 8.222047626664766 2.74068254222159 2.74068254222159 0.0 0.0 0.43861391052531945 0.8986756019241242
49_T 24.454412438572298 -0.7704198130516247 9.047269354154055 8.304680579086698 2.768226859695544 2.768226859695544 0.0 -0.0 0.7611420715427216 0.6485851886434459
50_F 25.96035320086228 26.379308641053896 -0.5409530179857853 8.388144006487199 2.7960480021623626 2.7960480021623626 0.0 0.0 0.5689873473401131 0.8223462765568174
53_T 8.530418521190573 -7.019075141139204 3.628954033065068 8.643601022939668 2.8812003409799427 2.8812003409799427 0.0 0.0 0.4937832216878833 0.8695850332081013
56_B 43.1410347226794 63.807116668276336 17.757833632972652 8.818213346259698 2.9394044487532556 2.9394044487532556 0.0 0.0 0.591041689671776 0.8066410112744902
57_T 50.9980194016556 -0.26075061034224234 54.26110411821838 8.818213346259698 2.9394044487532556 2.9394044487532556 0.0 0.0 0.6906372933410847 0.7232013060320761