ITEM: TIMESTEP
259
ITEM: NUMBER OF ATOMS
206
ITEM: BOX BOUNDS ff ff ff
0 60.9
60.9 0
60.9 0
ITEM: ATOMS id x y z AsphericalShapeX AsphericalShapeY AsphericalShapeZ OrientationX OrientationY OrientationZ OrientationW
1 42.09719736683767 53.4040727322585 23.301572410408237 1.8352851487835313 0.6117617162611805 0.6117617162611805 0.0 -0.0 0.7863642711635499 0.6177630881150306
2 20.181291699172537 7.758780539246127 25.614215746965144 1.8537300711759088 0.6179100237252994 0.6179100237252994 0.0 -0.0 0.8896314041555925 0.4566792799549252
3 13.771624245345041 22.317856941909962 53.85079787115942 1.872360368120173 0.6241201227067238 0.6241201227067238 0.0 0.0 0.631512325711268 0.7753658378305981
4 23.804696754292713 49.29138146915843 39.44199417863335 1.8911779026615572 0.6303926342205143 0.6303926342205143 0.0 0.0 0.5765741652112841 0.8170448164029381
5 54.323491464955886 13.130316518534524 22.864529206352373 1.910184556569195 0.636728185523059 0.636728185523059 0.0 -0.0 0.8873914294477543 0.4610167577677315
6 23.34090283176446 7.921488795054734 19.267591565226265 1.9293822305242894 0.6431274101747684 0.6431274101747684 0.0 0.0 0.643710445538684 0.7652691437033046
7 45.89429001471136 1.8604253595069093 23.6675119939605 1.9487728443102978 0.6495909481034333 0.6495909481034333 0.0 -0.0 0.7603958793842515 0.6494598575858641
8 48.52106784657476 35.8918151170251 7.629373851542578 1.9683583370047135 0.6561194456682331 0.6561194456682331 0.0 -0.0 0.7854601334426244 0.6189122545016335
9 48.53337489244392 60.404404114132426 55.544032632387214 1.9881406671731197 0.6627135557243746 0.6627135557243746 0.0 -0.0 0.7176002965020949 0.6964551776389529
10 21.35345162960481 60.58168708642455 14.134924121208735 2.0081218130650234 0.6693739376883455 0.6693739376883455 0.0 0.0 0.38534345666417513 0.9227732226317065
11 24.301782268979288 7.450403644196038 4.186045881955128 2.028303772811703 0.6761012576038997 0.6761012576038997 0.0 0.0 0.49983922045674145 0.866118209999765
12 8.757089967195736 60.88805326777566 20.322845825394502 2.0486885646259094 0.6828961882086308 0.6828961882086308 0.0 0.0 0.2746680171135514 0.9615391205639581
13 18.730592110670397 54.25986126043524 36.3938857517496 2.0692782270038172 0.6897594090012718 0.6897594090012718 0.0 -0.0 0.7886508549344257 0.614841303924191
14 25.25465452482116 37.6575831646116 13.71100491162666 2.0900748189288425 0.6966916063096088 0.6966916063096088 0.0 -0.0 0.7750680292508737 0.6318777967559605
15 20.602563528229982 57.82699320619007 24.80459995304078 2.111080420077487 0.7036934733591592 0.7036934733591592 0.0 0.0 0.6340811782098568 0.7732664866913604
16 20.9631369469502 33.26972754679376 50.46038341406148 2.1322971310273786 0.7107657103424583 0.7107657103424583 0.0 -0.0 0.7629176367612683 0.6464956918020424
17 32.00479992007643 30.155408358858814 38.34201372577389 2.153727073467286 0.7179090244890973 0.7179090244890973 0.0 0.0 0.6579222258448839 0.7530858813836
18 48.419310808678176 40.32892334536619 4.023783167947189 2.1753723904093327 0.7251241301364462 0.7251241301364462 0.0 0.0 0.506211649243881 0.8624092799650234
19 21.18337809265911 17.743994806373586 40.7606852919145 2.1972352464032365 0.7324117488010768 0.7324117488010768 0.0 0.0 0.6434542777811493 0.7654845474633303
20 20.47075235295392 55.001192930236634 12.167462086839834 2.2193178277528096 0.7397726092509409 0.7397726092509409 0.0 -0.0 0.7861857262579329 0.6179902942832407
21 42.941592147199366 19.517339548732863 44.30756015075648 2.2416223427346074 0.747207447578196 0.747207447578196 0.0 0.0 0.6069811502172251 0.7947162281474907
22 56.29710793067075 54.5041388435319 54.176080098647056 2.264151021818672 0.7547170072728958 0.7547170072728958 0.0 -0.0 0.8910647246123514 0.45387625687131333
23 41.72203669888453 8.859913548376642 46.65435285560178 2.2869061178917596 0.7623020392972487 0.7623020392972487 0.0 -0.0 0.7582829367961579 0.651925599868416
24 23.09970348139995 12.239928591263409 52.09504082217715 2.309889906482378 0.7699633021607943 0.7699633021607943 0.0 0.0 0.5255054740936084 0.8507902189715464
25 12.407488617527981 3.835543450582062 11.020532246320768 2.3331046859885567 0.7777015619961827 0.7777015619961827 0.0 0.0 0.6637035342538496 0.7479957343587923
26 56.03726525994296 16.98687927462226 52.26307479822983 2.35655277790759 0.7855175926358665 0.7855175926358665 0.0 0.0 0.5361151400853296 0.8441448670526212
27 59.25785570807864 25.61552670327192 20.355334838424508 2.380236527068222 0.7934121756894119 0.7934121756894119 0.0 -0.0 0.7297620279401082 0.6837012378054764
28 7.854570841152669 54.80126535259474 36.03379329806712 2.404158301865097 0.801386100621695 0.801386100621695 0.0 -0.0 0.9828164757017253 0.18458541407500267
29 43.95713319632285 33.604854406119024 26.705656358018555 2.428320494495636 0.8094401648318763 0.8094401648318763 0.0 -0.0 0.8740853421614372 0.4857723897243679
30 17.396776799170887 6.5401450977366204 27.53754852072713 2.452725521199224 0.8175751737330721 0.8175751737330721 0.0 -0.0 0.8433777540022546 0.5373210995802349
31 46.84709136217454 50.69652867399209 52.457484239010824 2.4773758224988813 0.8257919408329585 0.8257919408329585 0.0 0.0 0.6952778540174372 0.7187410560924617
32 8.580482060410151 50.17479593798787 45.714821833905496 2.5022738634452666 0.8340912878150861 0.8340912878150861 0.0 0.0 0.6353234605105568 0.7722461398575527
33 32.24406681082325 11.090472066752644 22.89174227527997 2.527422133863241 0.8424740446210768 0.8424740446210768 0.0 0.0 0.6411270229476993 0.7674347792784871
34 0.8398013019992501 24.133255145211766 46.14434747580061 2.5528231486007873 0.850941049533594 0.850941049533594 0.0 -0.0 0.7453722743584635 0.6666484625480594
35 34.7764149910731 39.25611733328891 43.93953663635286 2.5784794477805586 0.8594931492601897 0.8594931492601897 0.0 -0.0 0.7109313362059317 0.7032614273514853
36 26.518627912031924 26.704820081801863 19.766840863630286 2.604393597053842 0.868131199017945 0.868131199017945 0.0 -0.0 0.739632735620696 0.6730107104632479
37 8.34549629504764 49.318437150331846 9.36491240356727 2.630568187857178 0.8768560626190581 0.8768560626190581 0.0 0.0 0.5163603530767541 0.8563714064414165
38 16.10924913765328 59.791134598316866 11.93945178181889 2.6570058376714285 0.8856686125571392 0.8856686125571392 0.0 0.0 0.5145463711011363 0.8574625542766586
39 12.530041613211836 24.27412388693711 13.315422848294718 2.683709190283637 0.8945697300945459 0.8945697300945459 0.0 0.0 0.5880831456971182 0.8088004783300898
40 54.462425179629186 37.7071339520321 18.371021300078546 2.7106809160513157 0.9035603053504342 0.9035603053504342 0.0 -0.0 0.8608342640850161 0.5088854191045453
41 45.783702174198424 10.47134252146283 0.6453206518345496 2.7379237121694904 0.9126412373898333 0.9126412373898333 0.0 0.0 0.5813114541301716 0.8136811373609846
42 3.6225888245515416 5.496156860687724 35.64167504292181 2.7654403029405024 0.9218134343135008 0.9218134343135008 0.0 0.0 0.6858728758951139 0.7277213739552836
43 52.75910920228172 0.5304490649701403 29.631867905336982 2.7932334400463374 0.9310778133487875 0.9310778133487875 0.0 -0.0 0.8971229945165649 0.4417808650333688
44 41.65290450604642 19.524363094218955 40.21415103257538 2.8213059028239087 0.940435300941301 0.940435300941301 0.0 -0.0 0.7662793896249596 0.6425075073771507
45 27.446788535613663 23.005577779621966 23.831140576286376 2.8496604985428133 0.9498868328476036 0.9498868328476036 0.0 -0.0 0.8021859139948743 0.5970743332184094
46 14.062836625255741 42.31435658109965 14.154846239595138 2.8783000626863386 0.9594333542287798 0.9594333542287798 0.0 0.0 0.6689296931602822 0.7433256793683982
47 53.93417963688288 18.754645831919955 20.469109587944846 2.9072274592346945 0.9690758197448983 0.9690758197448983 0.0 -0.0 0.8121614142020023 0.5834328044268712
48 49.691760534502286 6.108780252389202 23.66042366301738 2.936445580951698 0.9788151936505669 0.9788151936505669 0.0 0.0 0.43861391052531945 0.8986756019241242
49 20.53289903622557 30.13075364682676 2.667004390669911 2.9659573496738134 0.988652449891268 0.988652449891268 0.0 -0.0 0.7611420715427216 0.6485851886434459
50 30.244108674106272 30.929498790677734 52.37007944148326 2.9957657166025453 0.9985885722008578 0.9985885722008578 0.0 0.0 0.5689873473401131 0.8223462765568174
51 7.721058052352142 28.25037620017583 41.60608446377487 3.025873662599446 1.008624554199808 1.008624554199808 0.0 -0.0 0.9816329176571261 0.1907794930592849
52 32.70842948411861 1.9874580366160475 25.840453287735635 3.0562841984841356 1.0187613994947187 1.0187613994947187 0.0 -0.0 0.8312938914163103 0.5558331279205367
53 19.78300712952311 42.784333407843675 7.244529152690297 3.087000365335601 1.0290001217785338 1.0290001217785338 0.0 0.0 0.4937832216878833 0.8695850332081013
54 28.40271944092751 46.767086209670786 37.32568331166497 3.1180252347961117 1.0393417449320344 1.0393417449320344 0.0 -0.0 0.7425013715714329 0.6698445440656666
55 19.625287949468905 51.920053297440425 6.40490303235437 3.1180252347961117 1.0393417449320344 1.0393417449320344 0.0 -0.0 0.899222239431846 0.4374921303419936
56 45.842254121112184 14.902704196651058 33.58451679074302 3.149361909378465 1.0497873031261609 1.0497873031261609 0.0 0.0 0.591041689671776 0.8066410112744902
57 51.08886782374934 4.312410149853692 46.46983617349667 3.149361909378465 1.0497873031261609 1.0497873031261609 0.0 0.0 0.6906372933410847 0.7232013060320761
58 46.717113997664285 53.69198278793955 28.277767739666974 3.1810135227762357 1.0603378409254083 1.0603378409254083 0.0 -0.0 0.9778925487455288 0.20910801779935065
59 30.919707425671202 51.17984131101626 36.057135931110636 3.1810135227762357 1.0603378409254083 1.0603378409254083 0.0 -0.0 0.8334397726994561 0.5526103014626843
60 34.92473431496441 28.416898976776665 9.710718831040765 3.2129832401771368 1.070994413392379 1.070994413392379 0.0 -0.0 0.8251393648538317 0.5649292243888745
61 15.138469838957175 25.61535859230853 35.81526595254241 3.2129832401771368 1.070994413392379 1.070994413392379 0.0 -0.0 0.8342848482439009 0.5513336485202505
62 3.7090800299437126 40.07043808670287 24.37157517752135 3.2452742585795313 1.0817580861931795 1.0817580861931795 0.0 0.0 0.6993489688984815 0.7147803996337831
63 35.00005980662232 48.41702159570098 1.2548178122849525 3.2452742585795313 1.0817580861931795 1.0817580861931795 0.0 0.0 0.6638694557235675 0.747848477806363
64 29.1339228713189 60.779533829594584 51.9854285415248 3.2778898071122424 1.0926299357040723 1.0926299357040723 0.0 0.0 0.5469534661185369 0.8371630103515794
65 19.242075486925625 6.038408949694481 11.762807198661033 3.2778898071122424 1.0926299357040723 1.0926299357040723 0.0 0.0 0.534266604389083 0.8453160328744268
66 41.996730402834295 13.610979483777076 19.86084197488639 3.310833147357204 1.1036110491190674 1.1036110491190674 0.0 0.0 0.49259387534365895 0.8702593142126752
67 59.98283212194457 58.45162783946299 15.844739430118311 3.310833147357204 1.1036110491190674 1.1036110491190674 0.0 -0.0 0.7991221049958454 0.6011687461162707
68 29.882982158058145 14.757103243151594 4.975104754874433 3.3441075736759167 1.114702524558642 1.114702524558642 0.0 -0.0 0.8113628171424923 0.5845428803420658
69 45.1934245427389 57.123945480653106 53.96074460821708 3.3441075736759167 1.114702524558642 1.114702524558642 0.0 0.0 0.69974083585519 0.7143967823532522
70 36.768544490110784 55.64321493084708 24.954350090412046 3.3777164135388125 1.1259054711795984 1.1259054711795984 0.0 -0.0 0.9226100212719841 0.3857340387475665
71 37.71346899727327 15.242586439387257 32.99248163927601 3.3777164135388125 1.1259054711795984 1.1259054711795984 0.0 -0.0 0.8908476943010929 0.4543020862360491
72 0.30661069811403574 44.5686049256395 7.145787263427707 3.4116630278578275 1.1372210092859343 1.1372210092859343 0.0 -0.0 0.9180976465577227 0.39635427509384946
73 0.6962860663972584 5.452303275992151 43.720378371540384 3.4116630278578275 1.1372210092859343 1.1372210092859343 0.0 0.0 0.6852526383261238 0.7283054453092375
74 10.161887361601487 33.85771464815256 16.411473915858057 3.4459508113226636 1.1486502704408912 1.1486502704408912 0.0 0.0 0.6622208999947843 0.7493086677799063
75 53.38780324378837 15.063642361708887 28.46671504084431 3.4459508113226636 1.1486502704408912 1.1486502704408912 0.0 0.0 0.6669694181073614 0.7450850926636016
76 3.438739981379901 20.762317790360964 14.275171995329199 3.480583192740266 1.160194397580094 1.160194397580094 0.0 0.0 0.4849872773235938 0.8745212066235144
77 12.62024479339044 8.622152067247228 4.031336089367408 3.480583192740266 1.160194397580094 1.160194397580094 0.0 -0.0 0.724549744492829 0.6892225096116464
78 6.657418395426221 5.7551573359984145 4.967330579463454 3.515563635377657 1.1718545451258857 1.1718545451258857 0.0 0.0 0.646327957303847 0.7630597431442944
79 59.80159952138739 22.095975183037286 18.138838629060952 3.515563635377657 1.1718545451258857 1.1718545451258857 0.0 0.0 0.4210348644808628 0.9070444547493698
80 57.016226815738115 9.378021543056798 19.82065310676351 3.5508956373082254 1.183631879102742 1.183631879102742 0.0 0.0 0.5786941501693628 0.8155446527074768
81 9.97392990266511 10.78134965696875 47.14769859113749 3.5508956373082254 1.183631879102742 1.183631879102742 0.0 0.0 0.683142879342022 0.730284743373632
82 19.67268580051106 59.19243271377361 0.6975806053857238 3.5865827317616086 1.195527577253867 1.195527577253867 0.0 0.0 0.3480344086077516 0.937481760049257
83 23.921452080571925 6.139920480963427 57.399518974455155 3.5865827317616086 1.195527577253867 1.195527577253867 0.0 -0.0 0.8280938516825816 0.560589486884571
84 32.06084949948191 39.83483473568193 22.280008460034505 3.6226284874770287 1.2075428291590102 1.2075428291590102 0.0 -0.0 0.8521868438699086 0.5232375972109076
85 10.61472496706131 35.63957965788476 25.374040763078316 3.6226284874770287 1.2075428291590102 1.2075428291590102 0.0 0.0 0.2683204071818837 0.9633297250109892
86 12.324642806039389 25.16973255757313 0.06923283928690444 3.6590365090600128 1.2196788363533468 1.2196788363533468 0.0 0.0 0.5717525694490604 0.8204261083902665
87 23.071604944276228 8.921997344883295 39.07487119355365 3.6590365090600128 1.2196788363533468 1.2196788363533468 0.0 -0.0 0.7407334016199733 0.6717990977401677
88 16.91040124629079 28.437153114446023 55.07316567204484 3.6958104373431384 1.2319368124477104 1.2319368124477104 0.0 0.0 0.6524446383875427 0.7578363898885753
89 10.66308041754066 29.161982241426777 28.612997818838313 3.6958104373431384 1.2319368124477104 1.2319368124477104 0.0 0.0 0.3815125934194192 0.9243636411404275
90 24.305122020420228 57.59063415816306 48.21581406288057 3.732953949749846 1.2443179832499502 1.2443179832499502 0.0 -0.0 0.7664413141092511 0.642314340511314
91 28.027329750809756 11.912068354870495 38.68975197543327 3.732953949749846 1.2443179832499502 1.2443179832499502 0.0 -0.0 0.7164030651197486 0.6976866404676452
92 57.54412419585645 36.76927941737452 38.43164361981871 3.77047076066234 1.2568235868874444 1.2568235868874444 0.0 0.0 0.3159382626609752 0.9487797500931208
93 17.544778719734534 41.078435295701055 37.25966249296569 3.77047076066234 1.2568235868874444 1.2568235868874444 0.0 -0.0 0.807675111463051 0.5896277760783901
94 45.87481421782803 12.289795603222412 50.896654608404795 3.808364621792986 1.2694548739309939 1.2694548739309939 0.0 0.0 0.5856043209472178 0.8105970511221638
95 33.61796275361684 11.590388345989785 51.8137124263166 3.808364621792986 1.2694548739309939 1.2694548739309939 0.0 -0.0 0.8283891439806925 0.5601530381377355
96 35.54011073531954 14.67674626615463 43.375159894571645 3.846639322559408 1.2822131075198107 1.2822131075198107 0.0 0.0 0.6380161188650698 0.7700230074928626
97 19.173757453899206 12.95749310691734 22.258380453939093 3.846639322559408 1.2822131075198107 1.2822131075198107 0.0 0.0 0.5652655734899162 0.8249089837231233
98 25.051738199805005 17.421274945479862 38.07604619915977 3.8852986904636593 1.2950995634878955 1.2950995634878955 0.0 -0.0 0.9884337224668884 0.15165347437579585
99 50.838502851522094 32.13335879892602 7.501549840813578 3.8852986904636593 1.2950995634878955 1.2950995634878955 0.0 0.0 0.644584962479319 0.7645326848117973
100 34.819085845532115 28.621275900883994 48.81220460845052 3.924346591474758 1.308115530491577 1.308115530491577 0.0 -0.0 0.7665764345255346 0.6421530736748979
101 28.983125142966323 34.495488764861484 2.4587785077607833 3.924346591474758 1.308115530491577 1.308115530491577 0.0 -0.0 0.7486465484609144 0.6629693397718779
102 42.87505417775116 48.680722000078894 8.604814870972795 3.9637869304152566 1.3212623101384167 1.3212623101384167 0.0 -0.0 0.764238184631255 0.644934102952793
103 32.47059915357214 32.58514761409923 19.648006649372565 3.9637869304152566 1.3212623101384167 1.3212623101384167 0.0 -0.0 0.7262700822056904 0.6874094614514261
104 50.77130078783886 46.10302649102794 36.366238596709664 4.003623651351987 1.3345412171173174 1.3345412171173174 0.0 0.0 0.6864264585310771 0.7271992278794606
105 16.976658020233696 5.895507947624356 24.55034126280994 4.003623651351987 1.3345412171173174 1.3345412171173174 0.0 -0.0 0.8498704758576332 0.5269916263713497
106 12.897992104094065 59.52471759198491 51.8501298151013 4.043860737990184 1.347953579330062 1.347953579330062 0.0 -0.0 0.793590538753224 0.6084521811953406
107 42.88852209429429 56.996309528145126 20.861861304175036 4.043860737990184 1.347953579330062 1.347953579330062 0.0 -0.0 0.8299364941277125 0.5578578812878792
108 59.2235612876059 0.2689000970637977 5.72021170808506 4.084502214072101 1.361500738024024 1.361500738024024 0.0 -0.0 0.7596155095013813 0.650372414640225
109 21.27106176274298 60.076754293307644 37.19108401088632 4.084502214072101 1.361500738024024 1.361500738024024 0.0 -0.0 0.746179639226726 0.6657446552571586
110 28.14594287292356 57.204895971268094 44.325389525570024 4.125552143779171 1.3751840479263797 1.3751840479263797 0.0 -0.0 0.7434755474029917 0.6687631198068729
111 34.69867667979736 46.49543086196789 16.5275736404494 4.125552143779171 1.3751840479263797 1.3751840479263797 0.0 -0.0 0.7635489887521677 0.6457499065238353
112 46.930517455553264 57.50374820913152 39.99151838630732 4.167014632138568 1.3890048773795334 1.3890048773795334 0.0 -0.0 0.925703395166632 0.3782502137170186
113 13.106087659530175 15.749547567733647 28.23543252550983 4.167014632138568 1.3890048773795334 1.3890048773795334 0.0 -0.0 0.7476030998596368 0.6641457709571461
114 53.63193619781105 5.3016346428746965 36.098504918751814 4.208893825433739 1.4029646084779135 1.4029646084779135 0.0 -0.0 0.7095009508808979 0.7047044775642494
115 26.13043285066528 31.460940279993004 0.39564804205725657 4.208893825433739 1.4029646084779135 1.4029646084779135 0.0 0.0 0.692332939305712 0.7215782016887105
116 18.614279034421337 38.89410632638254 48.509195552369526 4.251193911618877 1.417064637206289 1.417064637206289 0.0 0.0 0.4838188577050026 0.8751681626573412
117 55.113799767277655 43.298896645726906 43.29846622581482 4.251193911618877 1.417064637206289 1.417064637206289 0.0 0.0 0.4072390243389004 0.9133216175343166
118 47.88662318329901 59.385370701736804 4.688087321487321 4.293919120737833 1.431306373579279 1.431306373579279 0.0 -0.0 0.9854258972554679 0.17010526452245991
119 22.61941390624129 51.41651817238812 1.511672852932395 4.293919120737833 1.431306373579279 1.431306373579279 0.0 0.0 0.693566054094668 0.720393037589587
120 48.67755555383616 57.39123434364193 35.58679546912902 4.33707372534715 1.4456912417823846 1.4456912417823846 0.0 -0.0 0.8546373086497397 0.5192254526349123
121 60.33983597893411 11.361650213640974 1.761557020065684 4.33707372534715 1.4456912417823846 1.4456912417823846 0.0 -0.0 0.738138054050796 0.6746496966293722
122 43.67746658631358 40.97530331643171 44.388137915688205 4.380662040943274 1.4602206803144262 1.4602206803144262 0.0 0.0 0.30497028615780525 0.9523618663936657
123 50.213550582767596 34.83451354149145 43.810231639174596 4.380662040943274 1.4602206803144262 1.4602206803144262 0.0 -0.0 0.8240326158671573 0.5665423620411186
124 35.76730591506389 60.60196397288729 3.8773993894149275 4.424688426394044 1.474896142131341 1.474896142131341 0.0 -0.0 0.7351480847541838 0.6779065521753388
125 31.94168866472986 49.91550505977494 40.63793324966484 4.424688426394044 1.474896142131341 1.474896142131341 0.0 0.0 0.6354145425399089 0.7721711980699606
126 18.309968847726232 24.0313345461634 37.13907862644753 4.469157284374684 1.4897190947915508 1.4897190947915508 0.0 -0.0 0.9631928649301144 0.2688112812880415
127 60.33176881912956 34.82283127745802 46.043913102002556 4.469157284374684 1.4897190947915508 1.4897190947915508 0.0 0.0 0.6645731125154195 0.7472232451694524
128 18.95321090251162 49.04500896455649 47.79322859565449 4.514073061808032 1.5046910206026756 1.5046910206026756 0.0 -0.0 0.837305869343264 0.5467347447925007
129 59.43038691242484 24.893008542892694 47.83139536840725 4.514073061808032 1.5046910206026756 1.5046910206026756 0.0 0.0 0.6718759690179156 0.7406636768846148
130 28.300019917523088 40.24061966451249 9.962614506185083 4.5594402503093665 1.5198134167697845 1.5198134167697845 0.0 -0.0 0.8172568989423515 0.5762735124323614
131 10.484725903579378 24.779262278918534 50.96507214941796 4.5594402503093665 1.5198134167697845 1.5198134167697845 0.0 0.0 0.5650588956672867 0.8250505708302167
132 37.08301422731238 26.6377933592796 1.4216817926440057 4.6052633866352615 1.535087795545078 1.535087795545078 0.0 0.0 0.5632303093681869 0.8262999568008076
133 8.570550807747782 51.350368665740525 40.2191889655226 4.6052633866352615 1.535087795545078 1.535087795545078 0.0 0.0 0.7047758212396541 0.7094300823872436
134 44.09803889532284 22.434783508822306 41.50575980494113 4.651547053137545 1.5505156843791719 1.5505156843791719 0.0 -0.0 0.7457546235329385 0.6662207152882933
135 5.92814530639063 49.30129172754893 2.171820762916874 4.651547053137545 1.5505156843791719 1.5505156843791719 0.0 0.0 0.5807371118896761 0.8140911539097067
136 17.940461420506143 51.956377255530604 59.86096744952207 4.698295878221449 1.5660986260738192 1.5660986260738192 0.0 -0.0 0.7765636880913803 0.6300387593933514
137 49.31014541490053 25.663246877695187 26.869173243910048 4.698295878221449 1.5660986260738192 1.5660986260738192 0.0 -0.0 0.9207785641385271 0.39008567754147583
138 38.92750397071273 41.6471781208559 10.352571949378982 4.745514536808401 1.5818381789361389 1.5818381789361389 0.0 0.0 0.5933031767685688 0.8049790931672228
139 53.90198262554339 8.96665557669466 7.038282861001614 4.745514536808401 1.5818381789361389 1.5818381789361389 0.0 0.0 0.36293328461656904 0.9318151270061183
140 13.299028572491729 46.58301733164284 23.12010528270302 4.793207750803721 1.5977359169345673 1.5977359169345673 0.0 0.0 0.5657838974393875 0.8245535649054563
141 56.581202364798166 35.08212883175871 3.0266963912504203 4.793207750803721 1.5977359169345673 1.5977359169345673 0.0 0.0 0.5898626798291705 0.8075035720941112
142 1.1520378445214376 37.61754477373633 8.067231929681551 4.841380289568391 1.6137934298561387 1.6137934298561387 0.0 0.0 0.494526605223718 0.8691624915548904
143 36.14147082714892 10.301334808977263 1.538686323341513 4.841380289568391 1.6137934298561387 1.6137934298561387 0.0 0.0 0.6621201748514545 0.7493976741721844
144 18.889350244036997 23.9733298345335 43.32977795833239 4.8900369703965465 1.6300123234655228 1.6300123234655228 0.0 -0.0 0.8358120424685423 0.5490156916378287
145 59.818835546764696 47.47427157034558 17.819962533653705 4.8900369703965465 1.6300123234655228 1.6300123234655228 0.0 -0.0 0.7380766977143534 0.6747168208152773
146 30.77469517178021 50.72531587548345 50.56438414330922 4.9391826589968115 1.6463942196656045 1.6463942196656045 0.0 0.0 0.5600689403365469 0.8284460043179022
147 38.886455091484144 25.350915201599953 44.78518188543852 4.9391826589968115 1.6463942196656045 1.6463942196656045 0.0 -0.0 0.8053653384335279 0.5927787712543771
148 11.819411950329334 42.94065679559599 49.06355575325192 4.988822269978955 1.6629407566596386 1.6629407566596386 0.0 -0.0 0.9475491048281723 0.31961022189430877
149 0.6141838394208152 29.355996938797528 24.452208257646454 4.988822269978955 1.6629407566596386 1.6629407566596386 0.0 -0.0 0.8855269061838191 0.46458809543994295
150 42.21905975066458 6.709306835522037 4.100585392681929 5.0389607673454675 1.6796535891151578 1.6796535891151578 0.0 -0.0 0.8997163709941051 0.43647502994466686
151 29.902592342622334 40.040035090422734 46.16635773640482 5.0389607673454675 1.6796535891151578 1.6796535891151578 0.0 0.0 0.6949034215940625 0.7191030765174521
152 49.95823933762403 50.32835066847004 6.966435792874689 5.089603164987845 1.69653438832927 1.69653438832927 0.0 0.0 0.6496096252583186 0.7602679361723385
153 29.415542944075924 56.068409343369346 6.943932560392305 5.089603164987845 1.69653438832927 1.69653438832927 0.0 0.0 0.6980264017745981 0.7160720232110785
154 51.962596633458425 17.813495489676917 4.547033860733061 5.140754527188066 1.713584842396028 1.713584842396028 0.0 -0.0 0.9126309719920443 0.4087844284716046
155 11.722484320967553 44.382544027894305 3.3588898705574213 5.140754527188066 1.713584842396028 1.713584842396028 0.0 0.0 0.34897032679986184 0.9371337743423815
156 19.30399263937794 33.77930314215613 54.78138048169709 5.192419969124984 1.7308066563750069 1.7308066563750069 0.0 0.0 0.6995675014656925 0.7145665195718649
157 23.74559838508297 41.49940907968916 45.016346134948776 5.192419969124984 1.7308066563750069 1.7308066563750069 0.0 0.0 0.63565327495599 0.7719746848425306
158 44.53274141212278 0.5085734198739298 37.50200687496833 5.244604657385869 1.748201552461952 1.748201552461952 0.0 -0.0 0.7426985308561326 0.6696259345814963
159 7.501427777741635 3.9130673458114344 13.96910993870338 5.244604657385869 1.748201552461952 1.748201552461952 0.0 0.0 0.4891044501540252 0.8722252213961303
160 54.15050757569349 47.95510655572667 18.679886823632597 5.297313810483017 1.765771270161003 1.765771270161003 0.0 0.0 0.6466947184788655 0.7627489371290798
161 32.28697490546697 17.41807075095697 37.491992002699924 5.297313810483017 1.765771270161003 1.765771270161003 0.0 0.0 0.6377575578887067 0.7702371695496348
162 15.369578339339183 6.876758138775705 20.74535998394341 5.35055269937564 1.7835175664585492 1.7835175664585492 0.0 0.0 0.6701572236966805 0.7422191694689361
163 36.85738771383888 44.01997399203517 29.627864824462186 5.35055269937564 1.7835175664585492 1.7835175664585492 0.0 -0.0 0.7797338016261434 0.6261111711203069
164 57.01288608102981 38.647574009100616 34.5991310389997 5.404326647996993 1.8014422159989973 1.8014422159989973 0.0 0.0 0.6966086930688543 0.7174512727293072
165 28.996729430655993 27.103674576006213 45.48373819823108 5.404326647996993 1.8014422159989973 1.8014422159989973 0.0 -0.0 0.8994069955971553 0.43711217813153935
7_B 45.89429001471136 62.76042535950691 23.6675119939605 1.9487728443102978 0.6495909481034333 0.6495909481034333 0.0 -0.0 0.7603958793842515 0.6494598575858641
9_T 48.53337489244392 -0.49559588586757286 55.544032632387214 1.9881406671731197 0.6627135557243746 0.6627135557243746 0.0 -0.0 0.7176002965020949 0.6964551776389529
10_T 21.35345162960481 -0.318312913575447 14.134924121208735 2.0081218130650234 0.6693739376883455 0.6693739376883455 0.0 0.0 0.38534345666417513 0.9227732226317065
12_T 8.757089967195736 -0.011946732224338064 20.322845825394502 2.0486885646259094 0.6828961882086308 0.6828961882086308 0.0 0.0 0.2746680171135514 0.9615391205639581
34_R 61.73980130199925 24.133255145211766 46.14434747580061 2.5528231486007873 0.850941049533594 0.850941049533594 0.0 -0.0 0.7453722743584635 0.6666484625480594
38_T 16.10924913765328 -1.1088654016831327 11.93945178181889 2.6570058376714285 0.8856686125571392 0.8856686125571392 0.0 0.0 0.5145463711011363 0.8574625542766586
41_Ba 45.783702174198424 10.47134252146283 61.54532065183455 2.7379237121694904 0.9126412373898333 0.9126412373898333 0.0 0.0 0.5813114541301716 0.8136811373609846
43_B 52.75910920228172 61.43044906497014 29.631867905336982 2.7932334400463374 0.9310778133487875 0.9310778133487875 0.0 -0.0 0.8971229945165649 0.4417808650333688
52_B 32.70842948411861 62.887458036616046 25.840453287735635 3.0562841984841356 1.0187613994947187 1.0187613994947187 0.0 -0.0 0.8312938914163103 0.5558331279205367
64_T 29.1339228713189 -0.12046617040541463 51.9854285415248 3.2778898071122424 1.0926299357040723 1.0926299357040723 0.0 0.0 0.5469534661185369 0.8371630103515794
67_LB -0.9171678780554302 58.45162783946299 15.844739430118311 3.310833147357204 1.1036110491190674 1.1036110491190674 0.0 -0.0 0.7991221049958454 0.6011687461162707
67_RT 59.98283212194457 -2.448372160537012 15.844739430118311 3.310833147357204 1.1036110491190674 1.1036110491190674 0.0 -0.0 0.7991221049958454 0.6011687461162707
67_LT -0.9171678780554302 -2.448372160537012 15.844739430118311 3.310833147357204 1.1036110491190674 1.1036110491190674 0.0 -0.0 0.7991221049958454 0.6011687461162707
72_R 61.206610698114034 44.5686049256395 7.145787263427707 3.4116630278578275 1.1372210092859343 1.1372210092859343 0.0 -0.0 0.9180976465577227 0.39635427509384946
73_R 61.596286066397255 5.452303275992151 43.720378371540384 3.4116630278578275 1.1372210092859343 1.1372210092859343 0.0 0.0 0.6852526383261238 0.7283054453092375
79_L -1.0984004786126107 22.095975183037286 18.138838629060952 3.515563635377657 1.1718545451258857 1.1718545451258857 0.0 0.0 0.4210348644808628 0.9070444547493698
82_FT 19.67268580051106 -1.7075672862263858 0.6975806053857238 3.5865827317616086 1.195527577253867 1.195527577253867 0.0 0.0 0.3480344086077516 0.937481760049257
82_BT 19.67268580051106 -1.7075672862263858 61.59758060538572 3.5865827317616086 1.195527577253867 1.195527577253867 0.0 0.0 0.3480344086077516 0.937481760049257
82_BB 19.67268580051106 59.19243271377361 61.59758060538572 3.5865827317616086 1.195527577253867 1.195527577253867 0.0 0.0 0.3480344086077516 0.937481760049257