ITEM: TIMESTEP
572
ITEM: NUMBER OF ATOMS
256
ITEM: BOX BOUNDS ff ff ff
0 60.9
60.9 0
60.9 0
ITEM: ATOMS id x y z AsphericalShapeX AsphericalShapeY AsphericalShapeZ OrientationX OrientationY OrientationZ OrientationW
1 46.901320667716895 43.631058565056215 23.659353489720502 4.0446861163576004 1.3482287054525386 1.3482287054525386 0.0 -0.0 0.7863642711635499 0.6177630881150306
2 6.875004149883491 20.366957393803382 22.285613125190952 4.085335887629998 1.3617786292099727 1.3617786292099727 0.0 -0.0 0.8896314041555925 0.4566792799549252
3 16.989563874641618 15.278344589177099 57.64785229024372 4.126394195895548 1.3754647319652096 1.3754647319652096 0.0 0.0 0.631512325711268 0.7753658378305981
4 19.45244088071334 44.79839658941086 46.352932779923925 4.167865147019513 1.3892883823398425 1.3892883823398425 0.0 0.0 0.5765741652112841 0.8170448164029381
5 43.33953933166744 25.53923786884158 19.260149932382856 4.209752888131345 1.4032509627104492 1.4032509627104492 0.0 -0.0 0.8873914294477543 0.4610167577677315
6 26.547085233519553 15.642984098117104 21.17964682811126 4.252061608040118 1.417353869346712 1.417353869346712 0.0 0.0 0.643710445538684 0.7652691437033046
7 23.09443591813303 58.23941998707611 35.6704627385684 4.294795537653079 1.4315985125510198 1.4315985125510198 0.0 -0.0 0.7603958793842515 0.6494598575858641
8 43.725520923803884 34.39062576917247 15.892657688309727 4.337958950398798 1.4459863167996254 1.4459863167996254 0.0 -0.0 0.7854601334426244 0.6189122545016335
9 51.91011599190414 3.653192527723266 52.708701062728856 4.3815561626546184 1.4605187208848744 1.4605187208848744 0.0 -0.0 0.7176002965020949 0.6964551776389529
10 48.01173187782768 16.34721477220628 11.217810825311812 4.425591534177969 1.4751971780593274 1.4751971780593274 0.0 0.0 0.38534345666417513 0.9227732226317065
11 22.063851618801344 35.40242453669958 59.878331121754734 4.470069468542715 1.4900231561809132 1.4900231561809132 0.0 0.0 0.49983922045674145 0.866118209999765
12 8.943859728295864 15.167493078532964 24.79951368349375 4.514994413579344 1.5049981378598085 1.5049981378598085 0.0 0.0 0.2746680171135514 0.9615391205639581
13 7.561106905612603 47.00288105052939 16.118800771612307 4.560370861819986 1.5201236206066486 1.5201236206066486 0.0 -0.0 0.7886508549344257 0.614841303924191
14 8.391718944241072 26.59465779873511 26.10669780055473 4.6062033509470055 1.5354011169823178 1.5354011169823178 0.0 -0.0 0.7750680292508737 0.6318777967559605
15 26.281163280740916 42.42789691057388 20.97143921399718 4.652496464247639 1.550832154749244 1.550832154749244 0.0 0.0 0.6340811782098568 0.7732664866913604
16 16.40519839910382 31.92337449392775 53.064533960210944 4.699254831071941 1.5664182770239559 1.5664182770239559 0.0 -0.0 0.7629176367612683 0.6464956918020424
17 21.823826571412354 27.54457683316563 34.41423774024451 4.746483127295259 1.582161042431732 1.582161042431732 0.0 0.0 0.6579222258448839 0.7530858813836
18 38.19451629094012 31.474485067772598 14.808435164020821 4.794186075786729 1.5980620252622357 1.5980620252622357 0.0 0.0 0.506211649243881 0.8624092799650234
19 20.575326159137482 10.100013753806037 37.97545701602395 4.842368446880995 1.6141228156269878 1.6141228156269878 0.0 0.0 0.6434542777811493 0.7654845474633303
20 31.101074576779073 45.81885082077846 36.41046238025442 4.891035058855234 1.6303450196184313 1.6303450196184313 0.0 -0.0 0.7861857262579329 0.6179902942832407
21 45.0500807010075 20.013508593791887 43.41651227088485 4.940190778411233 1.6467302594703974 1.6467302594703974 0.0 0.0 0.6069811502172251 0.7947162281474907
22 19.808373771514955 7.833868352909907 30.63011345089908 4.989840521161904 1.663280173720626 1.663280173720626 0.0 -0.0 0.8910647246123514 0.45387625687131333
23 41.58333526176665 58.40423258696163 45.50868779951742 5.039989252122952 1.6799964173743447 1.6799964173743447 0.0 -0.0 0.7582829367961579 0.651925599868416
24 27.977469026379023 2.590795203184433 48.63386477856778 5.09064198620919 1.6968806620697352 1.6968806620697352 0.0 0.0 0.5255054740936084 0.8507902189715464
25 13.638241419743103 1.1268601481398681 52.08075890779913 5.141803788736377 1.713934596245433 1.713934596245433 0.0 0.0 0.6637035342538496 0.7479957343587923
26 3.4489543421525912 51.684084627262926 31.728021705192205 5.1934797759271145 1.7311599253090448 1.7311599253090448 0.0 0.0 0.5361151400853296 0.8441448670526212
27 60.742315278581955 32.924750053494904 30.218262152641994 5.245675115423433 1.7485583718078028 1.7485583718078028 0.0 -0.0 0.7297620279401082 0.6837012378054764
28 18.690987556868652 30.748318527716044 29.23317405348172 5.2983950268027105 1.7661316756008787 1.7661316756008787 0.0 -0.0 0.9828164757017253 0.18458541407500267
29 46.305001613058174 33.03143815593139 29.781466390201984 5.351644782100018 1.783881594033355 1.783881594033355 0.0 -0.0 0.8740853421614372 0.4857723897243679
30 18.87185377908852 57.69597047268074 30.125050940104526 5.405429706335233 1.8018099021117597 1.8018099021117597 0.0 -0.0 0.8433777540022546 0.5373210995802349
31 56.588241670964706 47.525876888688934 34.49865530602984 5.45975517804557 1.8199183926818947 1.8199183926818947 0.0 0.0 0.6952778540174372 0.7187410560924617
32 57.580022668299 34.70890994781536 35.389039860429534 5.514626629823625 1.8382088766078895 1.8382088766078895 0.0 0.0 0.6353234605105568 0.7722461398575527
33 26.8814170215369 29.01292090387522 24.362492278619538 5.5700495488601725 1.8566831829533634 1.8566831829533634 0.0 0.0 0.6411270229476993 0.7674347792784871
34 23.191944696375334 20.499056126683097 18.569631429481966 5.626029477493231 1.8753431591644496 1.8753431591644496 0.0 -0.0 0.7453722743584635 0.6666484625480594
35 22.49044657963464 50.67045070969602 42.311188092115685 5.682572013762504 1.8941906712541967 1.8941906712541967 0.0 -0.0 0.7109313362059317 0.7032614273514853
36 43.01070041895844 5.568417474470496 1.0288162532502676 5.739682811968609 1.913227603989576 1.913227603989576 0.0 -0.0 0.739632735620696 0.6730107104632479
37 22.649190413775617 56.78403814817071 19.086229572226934 5.797367583239128 1.932455861079724 1.932455861079724 0.0 0.0 0.5163603530767541 0.8563714064414165
38 18.575587285326467 13.290060717937218 18.41854467646747 5.8556320960989945 1.951877365366301 1.951877365366301 0.0 0.0 0.5145463711011363 0.8574625542766586
39 10.543923402117848 35.092782714527644 23.006914263788143 5.914482177048169 1.9714940590160563 1.9714940590160563 0.0 0.0 0.5880831456971182 0.8088004783300898
40 60.64117439303163 20.254273575655457 14.805288619797786 5.973923711143909 1.9913079037146089 1.9913079037146089 0.0 -0.0 0.8608342640850161 0.5088854191045453
41 15.727624923821946 17.949093531943017 34.79446700669916 6.033962642588915 2.011320880862955 2.011320880862955 0.0 0.0 0.5813114541301716 0.8136811373609846
42 11.724657382823233 3.963919817573183 37.545649164084416 6.094604975326482 2.0315349917755228 2.0315349917755228 0.0 0.0 0.6858728758951139 0.7277213739552836
43 57.197780651493865 34.35877665389071 40.422764655838044 6.1558567736406244 2.051952257880189 2.051952257880189 0.0 -0.0 0.8971229945165649 0.4417808650333688
44 42.09215175325986 14.024542611460156 25.233125395205235 6.21772416276188 2.0725747209206107 2.0725747209206107 0.0 -0.0 0.7662793896249596 0.6425075073771507
45 41.103458259931486 44.818841056399386 41.75837591369446 6.280213329480976 2.0934044431602934 2.0934044431602934 0.0 -0.0 0.8021859139948743 0.5970743332184094
46 13.905865747131548 44.04174866837764 17.740481103709648 6.3433305227663395 2.1144435075888115 2.1144435075888115 0.0 0.0 0.6689296931602822 0.7433256793683982
47 45.450916178003276 19.573005016543203 17.767992718768006 6.407082054390306 2.1356940181301023 2.1356940181301023 0.0 -0.0 0.8121614142020023 0.5834328044268712
48 59.59346432878846 49.8174814111614 13.107023974952362 6.471474299558943 2.157158099852982 2.157158099852982 0.0 0.0 0.43861391052531945 0.8986756019241242
49 24.253422112890483 4.631236539675001 6.045818980579832 6.5365136975503635 2.1788378991834634 2.1788378991834634 0.0 -0.0 0.7611420715427216 0.6485851886434459
50 25.972951145471182 19.73343598908053 59.49596824570334 6.602206752358741 2.2007355841195566 2.2007355841195566 0.0 0.0 0.5689873473401131 0.8223462765568174
51 45.454461394784886 25.82104102325978 38.94402685860212 6.6685600333442 2.222853344448049 2.222853344448049 0.0 -0.0 0.9816329176571261 0.1907794930592849
52 33.45699373418984 16.061257587640227 19.146010464877982 6.735580175890139 2.2451933919633427 2.2451933919633427 0.0 -0.0 0.8312938914163103 0.5558331279205367
53 12.25929788020166 0.009882353821367929 7.610522403566062 6.803273882066494 2.267757960688878 2.267757960688878 0.0 0.0 0.4937832216878833 0.8695850332081013
54 33.28323816992462 51.28901217242857 40.323149655812976 6.871647921300626 2.290549307100206 2.290549307100206 0.0 -0.0 0.7425013715714329 0.6698445440656666
55 27.061600564040184 45.71498420451653 15.23783268107012 6.871647921300626 2.290549307100206 2.290549307100206 0.0 -0.0 0.899222239431846 0.4374921303419936
56 40.97521623716143 13.304626418504755 19.753348800545698 6.940709131053307 2.313569710351102 2.313569710351102 0.0 0.0 0.591041689671776 0.8066410112744902
57 54.55194968448486 0.26968880506700743 56.37830669744613 6.940709131053307 2.313569710351102 2.313569710351102 0.0 0.0 0.6906372933410847 0.7232013060320761
58 24.162051789468936 37.76987557935312 33.93042235622632 7.010464417502979 2.3368214725009895 2.3368214725009895 0.0 -0.0 0.9778925487455288 0.20910801779935065
59 33.75126732356966 51.78474800179221 20.08939044459826 7.010464417502979 2.3368214725009895 2.3368214725009895 0.0 -0.0 0.8334397726994561 0.5526103014626843
60 47.420341462268766 27.701272486179136 54.62302347602486 7.0809207562366465 2.360306918745512 2.360306918745512 0.0 -0.0 0.8251393648538317 0.5649292243888745
61 10.002257030354377 7.047044916578368 41.86663432737418 7.0809207562366465 2.360306918745512 2.360306918745512 0.0 -0.0 0.8342848482439009 0.5513336485202505
62 21.428646728779803 2.285958466495439 41.52461755605985 7.15208519294653 2.3840283976488084 2.3840283976488084 0.0 0.0 0.6993489688984815 0.7147803996337831
63 34.77279334361551 0.2657680113816616 50.49247403636328 7.15208519294653 2.3840283976488084 2.3840283976488084 0.0 0.0 0.6638694557235675 0.747848477806363
64 39.21750155112044 30.34525418249654 43.665360973809065 7.223964844135868 2.407988281378614 2.407988281378614 0.0 0.0 0.5469534661185369 0.8371630103515794
65 17.288701780066322 24.808120114652343 7.812467505118782 7.223964844135868 2.407988281378614 2.407988281378614 0.0 0.0 0.534266604389083 0.8453160328744268
66 25.891314462048857 50.45745855844271 31.026602581282162 7.296566897829418 2.432188965943177 2.432188965943177 0.0 0.0 0.49259387534365895 0.8702593142126752
67 54.336269656226875 18.12569690807009 12.320647929242256 7.296566897829418 2.432188965943177 2.432188965943177 0.0 -0.0 0.7991221049958454 0.6011687461162707
68 37.72849552196515 26.86348572311831 24.289955717944714 7.369898614293539 2.45663287143119 2.45663287143119 0.0 -0.0 0.8113628171424923 0.5845428803420658
69 36.76461336968009 10.470446966719088 58.062870637765066 7.369898614293539 2.45663287143119 2.45663287143119 0.0 0.0 0.69974083585519 0.7143967823532522
70 8.279638473463722 2.6532501099345023 15.46303079866349 7.443967326760568 2.4813224422535183 2.4813224422535183 0.0 -0.0 0.9226100212719841 0.3857340387475665
71 15.735681859931605 59.8215513311499 23.194689793827013 7.443967326760568 2.4813224422535183 2.4813224422535183 0.0 -0.0 0.8908476943010929 0.4543020862360491
72 7.293569561864188 40.023189512290436 9.339313733917717 7.518780442163518 2.5062601473878705 2.5062601473878705 0.0 -0.0 0.9180976465577227 0.39635427509384946
73 35.035933138989805 33.51112590783817 28.28744811597827 7.518780442163518 2.5062601473878705 2.5062601473878705 0.0 0.0 0.6852526383261238 0.7283054453092375
74 37.153495875215114 20.645509657169395 13.617047845119487 7.5943454418765155 2.5314484806255084 2.5314484806255084 0.0 0.0 0.6622208999947843 0.7493086677799063
75 52.73928907371939 40.626519136078585 45.55452136271524 7.5943454418765155 2.5314484806255084 2.5314484806255084 0.0 0.0 0.6669694181073614 0.7450850926636016
76 60.661798638824024 12.443298018851767 31.7002672999264 7.670669882462172 2.5568899608207754 2.5568899608207754 0.0 0.0 0.4849872773235938 0.8745212066235144
77 14.713586866869315 44.52903504549789 23.73395257643343 7.670669882462172 2.5568899608207754 2.5568899608207754 0.0 -0.0 0.724549744492829 0.6892225096116464
78 3.1596487206198787 9.043944458329863 13.5499298843457 7.7477613964284515 2.5825871321428173 2.5825871321428173 0.0 0.0 0.646327957303847 0.7630597431442944
79 2.5579524542961627 17.626409162017428 29.141801543401368 7.7477613964284515 2.5825871321428173 2.5825871321428173 0.0 0.0 0.4210348644808628 0.9070444547493698
80 58.51930692996952 6.090272897835049 19.643114088502195 7.825627692990944 2.6085425643302798 2.6085425643302798 0.0 0.0 0.5786941501693628 0.8155446527074768
81 56.03049111526377 49.73974156647741 23.05960473125681 7.825627692990944 2.6085425643302798 2.6085425643302798 0.0 0.0 0.683142879342022 0.730284743373632
82 12.084694691977973 7.436849195850668 6.759568750110006 7.904276558843947 2.634758852947938 2.634758852947938 0.0 0.0 0.3480344086077516 0.937481760049257
83 14.076237181599113 45.08353396779777 2.2758192452534125 7.904276558843947 2.634758852947938 2.634758852947938 0.0 -0.0 0.8280938516825816 0.560589486884571
84 33.57634531480102 16.082056256785688 6.318361944329643 7.98371585893964 2.6612386196465896 2.6612386196465896 0.0 -0.0 0.8521868438699086 0.5232375972109076
85 17.238401246754187 42.24711739874623 28.981424706928046 7.98371585893964 2.6612386196465896 2.6612386196465896 0.0 0.0 0.2683204071818837 0.9633297250109892
86 6.753252997375812 1.6018367231290105 57.84058371856164 8.063953537274537 2.6879845124248454 2.6879845124248454 0.0 0.0 0.5717525694490604 0.8204261083902665
87 9.201420640111166 46.19597017011616 46.08908001330396 8.063953537274537 2.6879845124248454 2.6879845124248454 0.0 -0.0 0.7407334016199733 0.6717990977401677
88 33.87493660123589 47.991445343388136 56.03094498829306 8.144997617683238 2.7149992058943706 2.7149992058943706 0.0 0.0 0.6524446383875427 0.7578363898885753
89 38.269145175487935 25.953804465610638 49.01997401040724 8.144997617683238 2.7149992058943706 2.7149992058943706 0.0 0.0 0.3815125934194192 0.9243636411404275
90 19.164617696414133 16.88033301203546 48.90429756365657 8.22685620464113 2.742285401547013 2.742285401547013 0.0 -0.0 0.7664413141092511 0.642314340511314
91 32.50132195601047 1.6234380734902858 27.787249986378143 8.22685620464113 2.742285401547013 2.742285401547013 0.0 -0.0 0.7164030651197486 0.6976866404676452
92 51.46382222718479 15.92229317258754 33.83205248419625 8.309537484075072 2.7698458280250153 2.7698458280250153 0.0 0.0 0.3159382626609752 0.9487797500931208
93 21.107145879955052 34.813350280228505 39.645058230426564 8.309537484075072 2.7698458280250153 2.7698458280250153 0.0 -0.0 0.807675111463051 0.5896277760783901
94 51.024591567939446 17.185094054075538 48.62116846969468 8.393049724182127 2.7976832413940644 2.7976832413940644 0.0 0.0 0.5856043209472178 0.8105970511221638
95 41.07927783246504 59.11478984471228 55.321650471538725 8.393049724182127 2.7976832413940644 2.7976832413940644 0.0 -0.0 0.8283891439806925 0.5601530381377355
96 44.08896735170103 11.280259849795334 41.19981778226724 8.477401276255922 2.825800425418685 2.825800425418685 0.0 0.0 0.6380161188650698 0.7700230074928626
97 24.647209131051806 1.3137282065443052 22.26987735571099 8.477401276255922 2.825800425418685 2.825800425418685 0.0 0.0 0.5652655734899162 0.8249089837231233
98 16.615211152761482 21.656432535170154 40.316290615058755 8.5626005755219 2.8542001918405937 2.8542001918405937 0.0 -0.0 0.9884337224668884 0.15165347437579585
99 48.34523482795073 41.66794261325316 7.5537522562141 8.5626005755219 2.8542001918405937 2.8542001918405937 0.0 0.0 0.644584962479319 0.7645326848117973
100 29.422131471125553 33.663144171718876 55.782769781557256 8.648656141980844 2.882885380660321 2.882885380660321 0.0 -0.0 0.7665764345255346 0.6421530736748979
101 16.298676157305263 29.913287823783502 0.9077869971155896 8.648656141980844 2.882885380660321 2.882885380660321 0.0 -0.0 0.7486465484609144 0.6629693397718779
102 42.572138009576804 42.66119515688672 11.455819699532753 8.735576581261222 2.9118588604204536 2.9118588604204536 0.0 -0.0 0.764238184631255 0.644934102952793
103 27.590560172147175 46.861070075815284 1.3533079779427075 8.735576581261222 2.9118588604204536 2.9118588604204536 0.0 -0.0 0.7262700822056904 0.6874094614514261
104 48.22661145246219 60.43482734166754 49.866066082060215 8.823370585479605 2.941123528493144 2.941123528493144 0.0 0.0 0.6864264585310771 0.7271992278794606
105 21.552444996715355 55.24309759983453 10.037196706526181 8.823370585479605 2.941123528493144 2.941123528493144 0.0 -0.0 0.8498704758576332 0.5269916263713497
106 10.664966343812015 12.892921494108409 54.335927908477025 8.912046934109092 2.9706823113697154 2.9706823113697154 0.0 -0.0 0.793590538753224 0.6084521811953406
107 41.55687311841933 59.47080286036873 18.84550072047705 8.912046934109092 2.9706823113697154 2.9706823113697154 0.0 -0.0 0.8299364941277125 0.5578578812878792
108 52.0969471084278 44.662037564158865 58.79510001910395 9.001614494858876 3.0005381649529212 3.0005381649529212 0.0 -0.0 0.7596155095013813 0.650372414640225
109 56.50268066571595 45.478454094128324 5.542713075584086 9.001614494858876 3.0005381649529212 3.0005381649529212 0.0 -0.0 0.746179639226726 0.6657446552571586
110 44.27851266394286 13.30249554232361 50.78409790468594 9.092082224559444 3.0306940748531117 3.0306940748531117 0.0 -0.0 0.7434755474029917 0.6687631198068729
111 30.950461425834742 40.088337807520766 24.914380768059207 9.092082224559444 3.0306940748531117 3.0306940748531117 0.0 -0.0 0.7635489887521677 0.6457499065238353
112 46.72038985957168 58.95963720136199 13.231743769745213 9.183459170059203 3.0611530566864578 3.0611530566864578 0.0 -0.0 0.925703395166632 0.3782502137170186
113 20.284132545839107 10.312660154264478 9.96329980452582 9.183459170059203 3.0611530566864578 3.0611530566864578 0.0 -0.0 0.7476030998596368 0.6641457709571461
114 5.3583569328359095 0.31373747415779385 34.73778135826215 9.275754469129039 3.0919181563763236 3.0919181563763236 0.0 -0.0 0.7095009508808979 0.7047044775642494
115 26.813715615986563 12.490939021897725 52.03814269619724 9.275754469129039 3.0919181563763236 3.0919181563763236 0.0 0.0 0.692332939305712 0.7215782016887105
116 11.925498474658443 28.948959844235684 56.43874693327386 9.368977351375499 3.122992450458497 3.122992450458497 0.0 0.0 0.4838188577050026 0.8751681626573412
117 52.56329437081179 38.366588786643106 28.19898094171699 9.368977351375499 3.122992450458497 3.122992450458497 0.0 0.0 0.4072390243389004 0.9133216175343166
118 47.0440585897771 17.145648477494575 60.7826846760672 9.463137139164523 3.154379046388176 3.154379046388176 0.0 -0.0 0.9854258972554679 0.17010526452245991
119 39.39315863464621 25.657811719372 1.7941923773809025 9.463137139164523 3.154379046388176 3.154379046388176 0.0 0.0 0.693566054094668 0.720393037589587
120 28.983940420519602 25.649277565284144 31.702904628990012 9.5582432485536 3.186081082851174 3.186081082851174 0.0 -0.0 0.8546373086497397 0.5192254526349123
121 1.574417318858296 43.162414978160356 58.82950375058894 9.5582432485536 3.186081082851174 3.186081082851174 0.0 -0.0 0.738138054050796 0.6746496966293722
122 55.985314594297144 27.112538417351274 60.578773941707276 9.654305190232645 3.218101730077567 3.218101730077567 0.0 0.0 0.30497028615780525 0.9523618663936657
123 41.65271564247961 38.705335471178905 51.883530860473684 9.654305190232645 3.218101730077567 3.218101730077567 0.0 -0.0 0.8240326158671573 0.5665423620411186
124 8.125448653922977 47.31389041381993 60.879378200276456 9.751332570476135 3.2504441901587047 3.2504441901587047 0.0 -0.0 0.7351480847541838 0.6779065521753388
125 60.35892917733276 3.184060915989331 50.78578939930739 9.751332570476135 3.2504441901587047 3.2504441901587047 0.0 0.0 0.6354145425399089 0.7721711980699606
126 34.16682430346997 0.8868996391068151 43.88922475875334 9.849335092102699 3.2831116973675827 3.2831116973675827 0.0 -0.0 0.9631928649301144 0.2688112812880415
127 55.67801315128054 23.198938705257337 44.221630279044824 9.849335092102699 3.2831116973675827 3.2831116973675827 0.0 0.0 0.6645731125154195 0.7472232451694524
128 7.34499656854452 42.523840177338904 52.32929277615546 9.94832255544614 3.316107518482045 3.316107518482045 0.0 -0.0 0.837305869343264 0.5467347447925007
129 36.55257869120664 60.06774099709242 11.49253084584357 9.94832255544614 3.316107518482045 3.316107518482045 0.0 0.0 0.6718759690179156 0.7406636768846148
130 31.190370831513853 35.49491637116933 13.77212908994426 10.04830485933566 3.349434953111871 3.349434953111871 0.0 -0.0 0.8172568989423515 0.5762735124323614
131 3.984716717284835 18.6180777012509 38.5851024527479 10.04830485933566 3.349434953111871 3.349434953111871 0.0 0.0 0.5650588956672867 0.8250505708302167
132 25.6237649914056 59.70899280117912 55.2015378677866 10.149292002084646 3.3830973340282244 3.3830973340282244 0.0 0.0 0.5632303093681869 0.8262999568008076
133 14.071523194943403 47.23952488422635 36.84526488918523 10.149292002084646 3.3830973340282244 3.3830973340282244 0.0 0.0 0.7047758212396541 0.7094300823872436
134 60.8244318337028 36.02763978821381 48.37795649054438 10.2512940824915 3.4170980274971567 3.4170980274971567 0.0 -0.0 0.7457546235329385 0.6662207152882933
135 41.166750737171526 43.71574533703344 60.79557202403726 10.2512940824915 3.4170980274971567 3.4170980274971567 0.0 0.0 0.5807371118896761 0.8140911539097067
136 19.16834205164963 0.33528670036269803 1.7443142476407023 10.354321300849469 3.4514404336165008 3.4514404336165008 0.0 -0.0 0.7765636880913803 0.6300387593933514
137 2.749233960922753 41.58354312772549 23.386907905858155 10.354321300849469 3.4514404336165008 3.4514404336165008 0.0 -0.0 0.9207785641385271 0.39008567754147583
138 52.04201924911711 21.830949996580646 24.62472133394654 10.458383959966177 3.48612798665536 3.48612798665536 0.0 0.0 0.5933031767685688 0.8049790931672228
139 3.448844536656659 14.0017756339318 60.20910460629696 10.458383959966177 3.48612798665536 3.48612798665536 0.0 0.0 0.36293328461656904 0.9318151270061183
140 59.762132102383745 58.391179322678326 43.08461450737797 10.563492466194383 3.521164155398121 3.521164155398121 0.0 0.0 0.5657838974393875 0.8245535649054563
141 15.736965021018694 50.37054376832441 55.58558448064324 10.563492466194383 3.521164155398121 3.521164155398121 0.0 0.0 0.5898626798291705 0.8075035720941112
142 9.026092145706341 27.641323091904543 6.14084161375573 10.669657330471784 3.556552443490649 3.556552443490649 0.0 0.0 0.494526605223718 0.8691624915548904
143 31.448608592125378 0.7649223318995995 60.25777250483923 10.669657330471784 3.556552443490649 3.556552443490649 0.0 0.0 0.6621201748514545 0.7493976741721844
144 10.417460952421276 31.455455487237337 46.709902406185726 10.776889169373883 3.592296389791345 3.592296389791345 0.0 -0.0 0.8358120424685423 0.5490156916378287
145 7.78764113994402 20.922282991604206 16.37057738648617 10.776889169373883 3.592296389791345 3.592296389791345 0.0 -0.0 0.7380766977143534 0.6747168208152773
146 23.17605955753069 54.24373311538682 48.024703365160136 10.885198706173615 3.6283995687245834 3.6283995687245834 0.0 0.0 0.5600689403365469 0.8284460043179022
147 37.514184739467694 23.03661426808107 33.784690682701516 10.885198706173615 3.6283995687245834 3.6283995687245834 0.0 -0.0 0.8053653384335279 0.5927787712543771
148 0.04043259048284398 19.732803773279628 53.08582661920768 10.994596771915164 3.66486559063841 3.66486559063841 0.0 -0.0 0.9475491048281723 0.31961022189430877
149 42.134941695117696 56.65310508798129 25.636982727779877 10.994596771915164 3.66486559063841 3.66486559063841 0.0 -0.0 0.8855269061838191 0.46458809543994295
150 18.35619482009112 27.959534101388858 21.579553822012738 11.105094306495994 3.7016981021653335 3.7016981021653335 0.0 -0.0 0.8997163709941051 0.43647502994466686
151 32.16297936396321 32.364211210227154 38.609974054535115 11.105094306495994 3.7016981021653335 3.7016981021653335 0.0 0.0 0.6949034215940625 0.7191030765174521
152 60.50653782548001 2.105758592094686 59.52108265690719 11.216702359761781 3.7389007865872386 3.7389007865872386 0.0 0.0 0.6496096252583186 0.7602679361723385
153 34.92539012892459 42.83584357353724 5.295637109239295 11.216702359761781 3.7389007865872386 3.7389007865872386 0.0 0.0 0.6980264017745981 0.7160720232110785
154 39.84813680888612 12.462362306983383 6.18848018718716 11.329432092610622 3.77647736420351 3.77647736420351 0.0 -0.0 0.9126309719920443 0.4087844284716046
155 20.417392656080793 35.714742201819355 6.752589145262919 11.329432092610622 3.77647736420351 3.77647736420351 0.0 0.0 0.34897032679986184 0.9371337743423815
156 34.269674148629086 43.25969149943025 49.4683898360088 11.443294778110193 3.8144315927033214 3.8144315927033214 0.0 0.0 0.6995675014656925 0.7145665195718649
157 25.613770459546917 27.881378157721972 45.43125885503305 11.443294778110193 3.8144315927033214 3.8144315927033214 0.0 0.0 0.63565327495599 0.7719746848425306
158 51.47314222821882 54.09619819955797 37.91864543228973 11.558301802623628 3.8527672675411906 3.8527672675411906 0.0 -0.0 0.7426985308561326 0.6696259345814963
159 24.79144203493984 21.666165501170955 12.333523812978115 11.558301802623628 3.8527672675411906 3.8527672675411906 0.0 0.0 0.4891044501540252 0.8722252213961303
160 49.53832099141652 2.856786605998157 5.991003302333049 11.674464666949191 3.891488222316426 3.891488222316426 0.0 0.0 0.6466947184788655 0.7627489371290798
161 30.12271446579712 11.293885216398658 36.546230838356514 11.674464666949191 3.891488222316426 3.891488222316426 0.0 0.0 0.6377575578887067 0.7702371695496348
162 58.62050960725346 1.6702039814511802 8.486569051276405 11.791794987470078 3.9305983291566644 3.9305983291566644 0.0 0.0 0.6701572236966805 0.7422191694689361
163 40.986757730609874 6.872288247081475 31.538374632707168 11.791794987470078 3.9305983291566644 3.9305983291566644 0.0 -0.0 0.7797338016261434 0.6261111711203069
164 43.22836264279056 45.42051164589844 34.32897078738253 11.910304497316446 3.9701014991054815 3.9701014991054815 0.0 0.0 0.6966086930688543 0.7174512727293072
165 0.14478668164850997 32.493666014306825 16.292266374494154 11.910304497316446 3.9701014991054815 3.9701014991054815 0.0 -0.0 0.8994069955971553 0.43711217813153935
7_T 23.09443591813303 -2.6605800129238872 35.6704627385684 4.294795537653079 1.4315985125510198 1.4315985125510198 0.0 -0.0 0.7603958793842515 0.6494598575858641
9_B 51.91011599190414 64.55319252772327 52.708701062728856 4.3815561626546184 1.4605187208848744 1.4605187208848744 0.0 -0.0 0.7176002965020949 0.6964551776389529
11_F 22.063851618801344 35.40242453669958 -1.021668878245265 4.470069468542715 1.4900231561809132 1.4900231561809132 0.0 0.0 0.49983922045674145 0.866118209999765
23_T 41.58333526176665 -2.495767413038365 45.50868779951742 5.039989252122952 1.6799964173743447 1.6799964173743447 0.0 -0.0 0.7582829367961579 0.651925599868416
24_B 27.977469026379023 63.49079520318443 48.63386477856778 5.09064198620919 1.6968806620697352 1.6968806620697352 0.0 0.0 0.5255054740936084 0.8507902189715464
25_B 13.638241419743103 62.02686014813987 52.08075890779913 5.141803788736377 1.713934596245433 1.713934596245433 0.0 0.0 0.6637035342538496 0.7479957343587923
27_L -0.15768472141804324 32.924750053494904 30.218262152641994 5.245675115423433 1.7485583718078028 1.7485583718078028 0.0 -0.0 0.7297620279401082 0.6837012378054764
30_T 18.87185377908852 -3.204029527319257 30.125050940104526 5.405429706335233 1.8018099021117597 1.8018099021117597 0.0 -0.0 0.8433777540022546 0.5373210995802349
36_FB 43.01070041895844 66.4684174744705 1.0288162532502676 5.739682811968609 1.913227603989576 1.913227603989576 0.0 -0.0 0.739632735620696 0.6730107104632479
36_BT 43.01070041895844 5.568417474470496 61.92881625325027 5.739682811968609 1.913227603989576 1.913227603989576 0.0 -0.0 0.739632735620696 0.6730107104632479
36_BB 43.01070041895844 66.4684174744705 61.92881625325027 5.739682811968609 1.913227603989576 1.913227603989576 0.0 -0.0 0.739632735620696 0.6730107104632479
37_T 22.649190413775617 -4.11596185182929 19.086229572226934 5.797367583239128 1.932455861079724 1.932455861079724 0.0 0.0 0.5163603530767541 0.8563714064414165
40_L -0.2588256069683652 20.254273575655457 14.805288619797786 5.973923711143909 1.9913079037146089 1.9913079037146089 0.0 -0.0 0.8608342640850161 0.5088854191045453
42_B 11.724657382823233 64.86391981757318 37.545649164084416 6.094604975326482 2.0315349917755228 2.0315349917755228 0.0 0.0 0.6858728758951139 0.7277213739552836
43_L -3.7022193485061337 34.35877665389071 40.422764655838044 6.1558567736406244 2.051952257880189 2.051952257880189 0.0 -0.0 0.8971229945165649 0.4417808650333688
48_L -1.3065356712115417 49.8174814111614 13.107023974952362 6.471474299558943 2.157158099852982 2.157158099852982 0.0 0.0 0.43861391052531945 0.8986756019241242
49_B 24.253422112890483 65.531236539675 6.045818980579832 6.5365136975503635 2.1788378991834634 2.1788378991834634 0.0 -0.0 0.7611420715427216 0.6485851886434459
50_F 25.972951145471182 19.73343598908053 -1.4040317542966605 6.602206752358741 2.2007355841195566 2.2007355841195566 0.0 0.0 0.5689873473401131 0.8223462765568174
53_B 12.25929788020166 60.90988235382137 7.610522403566062 6.803273882066494 2.267757960688878 2.267757960688878 0.0 0.0 0.4937832216878833 0.8695850332081013
57_B 54.55194968448486 61.169688805067004 56.37830669744613 6.940709131053307 2.313569710351102 2.313569710351102 0.0 0.0 0.6906372933410847 0.7232013060320761