ITEM: TIMESTEP
344
ITEM: NUMBER OF ATOMS
203
ITEM: BOX BOUNDS ff ff ff
0 60.9
60.9 0
60.9 0
ITEM: ATOMS id x y z AsphericalShapeX AsphericalShapeY AsphericalShapeZ OrientationX OrientationY OrientationZ OrientationW
1 47.46851839005528 44.88800889303947 26.177421365070106 2.43528221665508 0.8117607388850318 0.8117607388850318 0.0 -0.0 0.7863642711635499 0.6177630881150306
2 16.567763131474234 11.182726330419818 24.710282127633494 2.4597572098295752 0.8199190699431819 0.8199190699431819 0.0 -0.0 0.8896314041555925 0.4566792799549252
3 12.440597938760542 27.308308402546896 58.367651783323325 2.4844781807748304 0.8281593935916114 0.8281593935916114 0.0 0.0 0.631512325711268 0.7753658378305981
4 17.18895945908038 57.74373596965539 46.00054480450926 2.5094476016086085 0.8364825338695283 0.8364825338695283 0.0 0.0 0.5765741652112841 0.8170448164029381
5 44.57655627422919 6.5062417220146145 13.018603869666666 2.5346679692937406 0.8448893230979044 0.8448893230979044 0.0 -0.0 0.8873914294477543 0.4610167577677315
6 28.6995517556268 0.23643701433607456 21.23212017465906 2.560141805888011 0.8533806019626764 0.8533806019626764 0.0 0.0 0.643710445538684 0.7652691437033046
7 39.70263634631149 0.6326762967061339 26.927099256873188 2.5858716587963566 0.8619572195987895 0.8619572195987895 0.0 -0.0 0.7603958793842515 0.6494598575858641
8 46.44116758925282 34.23228737377361 13.112205797970708 2.611860101025472 0.8706200336751554 0.8706200336751554 0.0 -0.0 0.7854601334426244 0.6189122545016335
9 47.87046392253785 59.147904484929754 51.8057985003854 2.6381097314412583 0.8793699104804209 0.8793699104804209 0.0 -0.0 0.7176002965020949 0.6964551776389529
10 9.169082122294839 2.6460294409643557 12.96695868421851 2.664623175028603 0.8882077250095387 0.8882077250095387 0.0 0.0 0.38534345666417513 0.9227732226317065
11 27.61281977699615 19.08337110894893 2.61505728495147 2.6914030831539906 0.8971343610513258 0.8971343610513258 0.0 0.0 0.49983922045674145 0.866118209999765
12 2.8026933217154992 4.63724055209392 22.98711566330601 2.718452133830516 0.9061507112768362 0.9061507112768362 0.0 0.0 0.2746680171135514 0.9615391205639581
13 12.425673620626183 55.09804670314137 26.51091617946137 2.7457730319858524 0.9152576773286105 0.9152576773286105 0.0 -0.0 0.7886508549344257 0.614841303924191
14 16.25984784879394 30.028313452212103 24.78226983242116 2.773368509732506 0.9244561699108237 0.9244561699108237 0.0 -0.0 0.7750680292508737 0.6318777967559605
15 23.49722201504001 50.66718519323438 25.00758154588669 2.801241326641266 0.9337471088804221 0.9337471088804221 0.0 0.0 0.6340811782098568 0.7732664866913604
16 14.773580879735864 38.02042042218081 54.29468601933986 2.829394270017116 0.9431314233390311 0.9431314233390311 0.0 -0.0 0.7629176367612683 0.6464956918020424
17 28.793765978403087 17.06820946667341 35.595224315559506 2.857830155177758 0.9526100517259151 0.9526100517259151 0.0 0.0 0.6579222258448839 0.7530858813836
18 38.95213333995352 36.32605437219766 10.921570233718015 2.886551825735474 0.9621839419118203 0.9621839419118203 0.0 0.0 0.506211649243881 0.8624092799650234
19 13.082124030466785 15.938869318384528 41.356573195759644 2.915562153881234 0.9718540512937364 0.9718540512937364 0.0 0.0 0.6434542777811493 0.7654845474633303
20 26.02654780786008 57.34835760468149 24.599361005348378 2.944864040672011 0.9816213468906747 0.9816213468906747 0.0 -0.0 0.7861857262579329 0.6179902942832407
21 41.98564227445083 22.60839146303252 47.73685139027623 2.9744604163209245 0.9914868054402954 0.9914868054402954 0.0 0.0 0.6069811502172251 0.7947162281474907
22 7.017200940872072 49.08918634156121 44.13594183926574 3.0043542404901564 1.0014514134967272 1.0014514134967272 0.0 -0.0 0.8910647246123514 0.45387625687131333
23 44.23746014304612 2.885540630021612 48.59072424774953 3.0345485025871457 1.0115161675290414 1.0115161675290414 0.0 -0.0 0.7582829367961579 0.651925599868416
24 25.998341772915506 11.563581860119927 52.401573778630606 3.0650462220631565 1.0216820740210562 1.0216820740210562 0.0 0.0 0.5255054740936084 0.8507902189715464
25 18.28815156341146 58.898665525398 1.0765280369796457 3.0958504487156007 1.0319501495718577 1.0319501495718577 0.0 0.0 0.6637035342538496 0.7479957343587923
26 56.80115079002547 9.471802534099407 40.64887730745999 3.1269642629927485 1.0423214209975922 1.0423214209975922 0.0 0.0 0.5361151400853296 0.8441448670526212
27 60.50958884069481 19.31038925853428 20.709531930613426 3.1583907763020487 1.0527969254340284 1.0527969254340284 0.0 -0.0 0.7297620279401082 0.6837012378054764
28 18.002739182514972 41.89325478686294 37.417159147448494 3.1901331313209815 1.0633777104403233 1.0633777104403233 0.0 -0.0 0.9828164757017253 0.18458541407500267
29 44.82805116647934 29.385975862100953 29.103786179670106 3.222194502311505 1.0740648341038384 1.0740648341038384 0.0 -0.0 0.8740853421614372 0.4857723897243679
30 18.69151902061586 1.197264046292519 23.640151980686795 3.2545780954374193 1.08485936514581 1.08485936514581 0.0 -0.0 0.8433777540022546 0.5373210995802349
31 49.865677902211765 38.89431098349836 49.28776521127384 3.2872871490850426 1.095762383028352 1.095762383028352 0.0 0.0 0.6952778540174372 0.7187410560924617
32 3.7193876781092214 39.647697872821944 38.80706461751955 3.3203249341869743 1.1067749780623288 1.1067749780623288 0.0 0.0 0.6353234605105568 0.7722461398575527
33 26.04786627408963 19.818662988260833 24.07334802472558 3.3536947545492892 1.1178982515164262 1.1178982515164262 0.0 0.0 0.6411270229476993 0.7674347792784871
34 9.579170163767705 18.37660172451725 36.99264339823481 3.387399947181802 1.1291333157272732 1.1291333157272732 0.0 -0.0 0.7453722743584635 0.6666484625480594
35 30.853352204934463 42.69010848697174 40.323817074044044 3.4214438826319062 1.1404812942106388 1.1404812942106388 0.0 -0.0 0.7109313362059317 0.7032614273514853
36 31.532522267041855 13.230683874281379 12.063888173789458 3.4558299653214304 1.151943321773816 1.151943321773816 0.0 -0.0 0.739632735620696 0.6730107104632479
37 15.287635509039845 51.669892934422734 21.651101757580097 3.4905616338873986 1.1635205446291401 1.1635205446291401 0.0 0.0 0.5163603530767541 0.8563714064414165
38 22.4969595067062 0.9472905737095805 13.218124481350735 3.525642361525538 1.1752141205085092 1.1752141205085092 0.0 0.0 0.5145463711011363 0.8574625542766586
39 10.752614447608401 27.15637493858017 28.104710092356175 3.561075656337903 1.1870252187793011 1.1870252187793011 0.0 0.0 0.5880831456971182 0.8088004783300898
40 55.66121965335102 23.209399133514513 16.163522788318947 3.5968650616834896 1.1989550205611526 1.1989550205611526 0.0 -0.0 0.8608342640850161 0.5088854191045453
41 59.81755854234774 10.798085276583794 48.63721184938464 3.633014156532593 1.2110047188441972 1.2110047188441972 0.0 0.0 0.5813114541301716 0.8136811373609846
42 15.979871065797546 58.85981095897282 40.53069880282374 3.6695265558248975 1.223175518608299 1.223175518608299 0.0 0.0 0.6858728758951139 0.7277213739552836
43 4.51125161814932 9.22760276766099 29.764972549076308 3.7064059108307044 1.2354686369435786 1.2354686369435786 0.0 -0.0 0.8971229945165649 0.4417808650333688
44 38.93047292680296 9.972582311153833 36.40565126633202 3.7436559095163537 1.2478853031721053 1.2478853031721053 0.0 -0.0 0.7662793896249596 0.6425075073771507
45 26.561746998273822 34.939999234393284 32.19415846008358 3.7812802769125766 1.260426758970858 1.260426758970858 0.0 -0.0 0.8021859139948743 0.5970743332184094
46 20.575352668614908 30.843960590641814 13.843089958676426 3.8192827754876424 1.273094258495881 1.273094258495881 0.0 0.0 0.6689296931602822 0.7433256793683982
47 49.604888903126394 13.958570624040172 14.36835139341012 3.8576672055229597 1.2858890685076534 1.2858890685076534 0.0 -0.0 0.8121614142020023 0.5834328044268712
48 59.73903135922543 55.18964182054487 19.641813070399618 3.8964374054936015 1.2988124684978681 1.2988124684978681 0.0 0.0 0.43861391052531945 0.8986756019241242
49 21.501971850680974 21.972170246600523 4.052349066760474 3.93559725245179 1.3118657508172662 1.3118657508172662 0.0 -0.0 0.7611420715427216 0.6485851886434459
50 31.93278173665713 17.574119768705778 52.548970770838096 3.9751506624149036 1.3250502208049773 1.3250502208049773 0.0 0.0 0.5689873473401131 0.8223462765568174
51 8.9511419715624 18.93780503012896 40.88749359197106 4.0151015907569665 1.3383671969189754 1.3383671969189754 0.0 -0.0 0.9816329176571261 0.1907794930592849
52 34.55536507109535 52.05802395010303 23.79031379057644 4.055454032603951 1.3518180108679834 1.3518180108679834 0.0 -0.0 0.8312938914163103 0.5558331279205367
53 13.73434975731508 51.93954629590191 9.261083628105709 4.096212023233767 1.3654040077446017 1.3654040077446017 0.0 0.0 0.4937832216878833 0.8695850332081013
54 32.40776450371465 51.46816671353559 41.763219935862665 4.137379638479446 1.3791265461598126 1.3791265461598126 0.0 -0.0 0.7425013715714329 0.6698445440656666
55 19.522029621670836 46.467692593715725 3.575840913416564 4.137379638479446 1.3791265461598126 1.3791265461598126 0.0 -0.0 0.899222239431846 0.4374921303419936
56 45.753885482991606 11.48598286692653 23.63421543570133 4.1789609951368085 1.3929869983789358 1.3929869983789358 0.0 0.0 0.591041689671776 0.8066410112744902
57 53.671510637861665 59.581199749701135 49.844708994574255 4.1789609951368085 1.3929869983789358 1.3929869983789358 0.0 0.0 0.6906372933410847 0.7232013060320761
58 36.884337725271564 52.75821794207531 33.39053903172967 4.22096025137615 1.406986750458713 1.406986750458713 0.0 -0.0 0.9778925487455288 0.20910801779935065
59 30.326013731526636 58.25102981520456 23.5272853704569 4.22096025137615 1.406986750458713 1.406986750458713 0.0 -0.0 0.8334397726994561 0.5526103014626843
60 40.263599359872856 28.443099190757696 59.70540988123185 4.263381607158133 1.4211272023860413 1.4211272023860413 0.0 -0.0 0.8251393648538317 0.5649292243888745
61 7.8727158319147925 41.60575962063 38.4428372806568 4.263381607158133 1.4211272023860413 1.4211272023860413 0.0 -0.0 0.8342848482439009 0.5513336485202505
62 14.427250717305292 48.70886169513218 27.421400854277017 4.306229304653617 1.435409768217871 1.435409768217871 0.0 0.0 0.6993489688984815 0.7147803996337831
63 36.8298133457378 54.05691331253714 52.38746820083124 4.306229304653617 1.435409768217871 1.435409768217871 0.0 0.0 0.6638694557235675 0.747848477806363
64 39.46424171076709 48.37240623826721 41.25553044846265 4.349507628668179 1.449835876222718 1.449835876222718 0.0 0.0 0.5469534661185369 0.8371630103515794
65 23.40022926733837 13.242444532553039 5.14868751641423 4.349507628668179 1.449835876222718 1.449835876222718 0.0 0.0 0.534266604389083 0.8453160328744268
66 41.171432191749034 19.405765494417295 17.156979829534787 4.393220907070123 1.4644069690233783 1.4644069690233783 0.0 0.0 0.49259387534365895 0.8702593142126752
67 60.2134497781009 12.988365898177623 13.067112385018518 4.393220907070123 1.4644069690233783 1.4644069690233783 0.0 -0.0 0.7991221049958454 0.6011687461162707
68 37.73384387950205 29.760125565159985 19.80885380696005 4.437373511223817 1.4791245037412828 1.4791245037412828 0.0 -0.0 0.8113628171424923 0.5845428803420658
69 41.343795767463554 11.18655366677749 57.460236952148016 4.437373511223817 1.4791245037412828 1.4791245037412828 0.0 0.0 0.69974083585519 0.7143967823532522
70 53.78663030033569 51.505337628886025 25.159856004592214 4.48196985642651 1.4939899521421578 1.4939899521421578 0.0 -0.0 0.9226100212719841 0.3857340387475665
71 28.806124994880946 16.816161803231317 27.993747398613486 4.48196985642651 1.4939899521421578 1.4939899521421578 0.0 -0.0 0.8908476943010929 0.4543020862360491
72 4.6614682296347 43.11914447192177 8.739782687773351 4.527014402349803 1.5090048007832653 1.5090048007832653 0.0 -0.0 0.9180976465577227 0.39635427509384946
73 51.25516894636893 23.554545377326804 37.57329528865813 4.527014402349803 1.5090048007832653 1.5090048007832653 0.0 0.0 0.6852526383261238 0.7283054453092375
74 55.179798668032724 45.492292557961335 13.083269923906975 4.57251165348585 1.5241705511619534 1.5241705511619534 0.0 0.0 0.6622208999947843 0.7493086677799063
75 57.748916566331886 4.003951940194508 30.114285785868464 4.57251165348585 1.5241705511619534 1.5241705511619534 0.0 0.0 0.6669694181073614 0.7450850926636016
76 1.7440275372761143 11.67253328019239 23.53904981080395 4.618466159597653 1.539488719865902 1.539488719865902 0.0 0.0 0.4849872773235938 0.8745212066235144
77 18.886693758261405 45.25395512129219 7.507561162730354 4.618466159597653 1.539488719865902 1.539488719865902 0.0 -0.0 0.724549744492829 0.6892225096116464
78 7.133283068305645 7.803100682980304 7.156824755535581 4.664882516174199 1.554960838724733 1.554960838724733 0.0 0.0 0.646327957303847 0.7630597431442944
79 3.3112972585905247 25.129514057205373 22.857155621122157 4.664882516174199 1.554960838724733 1.554960838724733 0.0 0.0 0.4210348644808628 0.9070444547493698
80 52.0914577978713 17.44300744868487 19.97032910694508 4.711765364889784 1.5705884549632474 1.5705884549632474 0.0 0.0 0.5786941501693628 0.8155446527074768
81 5.010810656765765 56.604554062106615 38.38757256678407 4.711765364889784 1.5705884549632474 1.5705884549632474 0.0 0.0 0.683142879342022 0.730284743373632
82 12.941604610023823 16.054611723969497 59.73798555006742 4.759119394068304 1.5863731313560907 1.5863731313560907 0.0 0.0 0.3480344086077516 0.937481760049257
83 18.0667783663568 9.818070314428656 3.525733292624588 4.759119394068304 1.5863731313560907 1.5863731313560907 0.0 -0.0 0.8280938516825816 0.560589486884571
84 32.23972831833328 39.26736754980035 18.023313173682318 4.806949339152188 1.6023164463840718 1.6023164463840718 0.0 -0.0 0.8521868438699086 0.5232375972109076
85 18.475634768013794 38.46598850787609 27.530236642912765 4.806949339152188 1.6023164463840718 1.6023164463840718 0.0 0.0 0.2683204071818837 0.9633297250109892
86 12.013634312170577 42.579757881107874 56.80062837420004 4.855259983175778 1.6184199943919415 1.6184199943919415 0.0 0.0 0.5717525694490604 0.8204261083902665
87 21.598516052745545 9.303571363900547 40.188067248593406 4.855259983175778 1.6184199943919415 1.6184199943919415 0.0 -0.0 0.7407334016199733 0.6717990977401677
88 24.071638013720502 49.283508435381165 55.46302792133768 4.9040561572438 1.6346853857479215 1.6346853857479215 0.0 0.0 0.6524446383875427 0.7578363898885753
89 10.331872477284787 27.572985401768435 39.46132668289248 4.9040561572438 1.6346853857479215 1.6346853857479215 0.0 0.0 0.3815125934194192 0.9243636411404275
90 14.458738169404112 2.6248065309309467 46.354689876556044 4.9533427410142465 1.6511142470047342 1.6511142470047342 0.0 -0.0 0.7664413141092511 0.642314340511314
91 39.06989387199727 7.344148010894032 33.29776043764217 4.9533427410142465 1.6511142470047342 1.6511142470047342 0.0 -0.0 0.7164030651197486 0.6976866404676452
92 57.049746047404625 20.611520024346184 43.4560523086284 5.00312466318656 1.667708221062184 1.667708221062184 0.0 0.0 0.3159382626609752 0.9487797500931208
93 21.12273145222405 41.28819676288151 41.61556591701186 5.00312466318656 1.667708221062184 1.667708221062184 0.0 -0.0 0.807675111463051 0.5896277760783901
94 56.00279335366237 9.022778868205691 45.99391071047759 5.053406901994508 1.684468967331518 1.684468967331518 0.0 0.0 0.5856043209472178 0.8105970511221638
95 43.5760213161957 24.71155083636372 54.29732365777606 5.053406901994508 1.684468967331518 1.684468967331518 0.0 -0.0 0.8283891439806925 0.5601530381377355
96 35.20968971004873 1.8969170362311942 40.00966895389125 5.104194485703821 1.7013981619012941 1.7013981619012941 0.0 0.0 0.6380161188650698 0.7700230074928626
97 20.596624304597032 25.920847249100042 27.175321253812037 5.104194485703821 1.7013981619012941 1.7013981619012941 0.0 0.0 0.5652655734899162 0.8249089837231233
98 22.582960691427164 20.87531542553092 39.95694006494644 5.155492493115265 1.7184974977050922 1.7184974977050922 0.0 -0.0 0.9884337224668884 0.15165347437579585
99 47.11064914348212 26.40488933411502 12.552436297420257 5.155492493115265 1.7184974977050922 1.7184974977050922 0.0 0.0 0.644584962479319 0.7645326848117973
100 35.23649781308093 25.47082966071504 54.25500834290274 5.207306054072249 1.735768684690746 1.735768684690746 0.0 -0.0 0.7665764345255346 0.6421530736748979
101 14.245858891424257 33.0359057638691 58.87662003150235 5.207306054072249 1.735768684690746 1.735768684690746 0.0 -0.0 0.7486465484609144 0.6629693397718779
102 43.99316833358786 22.280384255718953 14.768472937743512 5.259640349974054 1.7532134499913552 1.7532134499913552 0.0 -0.0 0.764238184631255 0.644934102952793
103 27.13754914165026 21.385727619048748 10.097211172238236 5.259640349974054 1.7532134499913552 1.7532134499913552 0.0 -0.0 0.7262700822056904 0.6874094614514261
104 42.1595216518771 50.97915560701632 43.65293552927629 5.312500614293992 1.7708335380979732 1.7708335380979732 0.0 0.0 0.6864264585310771 0.7271992278794606
105 19.293983506066485 60.41561102246708 19.479024075530166 5.312500614293992 1.7708335380979732 1.7708335380979732 0.0 -0.0 0.8498704758576332 0.5269916263713497
106 15.847740472006372 25.099923500851844 53.63127021133522 5.365892133102362 1.7886307110341213 1.7886307110341213 0.0 -0.0 0.793590538753224 0.6084521811953406
107 45.2637632509079 6.227258431941416 18.12619540061839 5.365892133102362 1.7886307110341213 1.7886307110341213 0.0 -0.0 0.8299364941277125 0.5578578812878792
108 53.2044673387093 7.135630735329886 1.5612589246434405 5.419820245595681 1.8066067485318715 1.8066067485318715 0.0 -0.0 0.7596155095013813 0.650372414640225
109 9.645606160041732 59.696503401255235 49.65701845040006 5.419820245595681 1.8066067485318715 1.8066067485318715 0.0 -0.0 0.746179639226726 0.6657446552571586
110 33.50605127830294 6.646086251561108 47.083835254627495 5.47429034463006 1.824763448209997 1.824763448209997 0.0 -0.0 0.7434755474029917 0.6687631198068729
111 40.66297327747174 1.316218944458659 14.29260460668906 5.47429034463006 1.824763448209997 1.824763448209997 0.0 -0.0 0.7635489887521677 0.6457499065238353
112 47.80824932667482 4.50281996831167 23.52960324125808 5.529307877260785 1.8431026257536183 1.8431026257536183 0.0 -0.0 0.925703395166632 0.3782502137170186
113 13.99959019447057 8.364745999994083 20.636083327436147 5.529307877260785 1.8431026257536183 1.8431026257536183 0.0 -0.0 0.7476030998596368 0.6641457709571461
114 3.2306565522280573 26.187297203098783 36.80360850445719 5.584878345287076 1.8616261150956925 1.8616261150956925 0.0 -0.0 0.7095009508808979 0.7047044775642494
115 26.43796047404283 40.72574245805842 59.92124371639184 5.584878345287076 1.8616261150956925 1.8616261150956925 0.0 0.0 0.692332939305712 0.7215782016887105
116 19.49805489791266 12.76101252329593 50.139590826816125 5.641007305802005 1.880335768600646 1.880335768600646 0.0 0.0 0.4838188577050026 0.8751681626573412
117 4.988975673572138 37.0960553202939 28.314249214038732 5.641007305802005 1.880335768600646 1.880335768600646 0.0 0.0 0.4072390243389004 0.9133216175343166
118 43.35827992170252 11.362989420826514 1.1753189875077483 5.697700371748276 1.8992334572494267 1.8992334572494267 0.0 -0.0 0.9854258972554679 0.17010526452245991
119 32.565852881909656 30.8355237388537 3.260352860477154 5.697700371748276 1.8992334572494267 1.8992334572494267 0.0 0.0 0.693566054094668 0.720393037589587
120 37.9110716374831 38.245141232351166 34.4747873383227 5.754963212479869 1.9183210708266245 1.9183210708266245 0.0 -0.0 0.8546373086497397 0.5192254526349123
121 58.64312498269217 27.287799556692914 57.749172974195915 5.754963212479869 1.9183210708266245 1.9183210708266245 0.0 -0.0 0.738138054050796 0.6746496966293722
122 51.58188297309888 32.96149747286291 52.23441068526091 5.8128015543285425 1.9376005181095284 1.9376005181095284 0.0 0.0 0.30497028615780525 0.9523618663936657
123 40.384174395390744 35.33052448597342 43.83988506791434 5.8128015543285425 1.9376005181095284 1.9376005181095284 0.0 -0.0 0.8240326158671573 0.5665423620411186
124 44.061888522423246 37.84767015170627 54.15922555363006 5.871221181176721 1.9570737270588998 1.9570737270588998 0.0 -0.0 0.7351480847541838 0.6779065521753388
125 30.59696978999222 41.51215112995353 44.243199252808296 5.871221181176721 1.9570737270588998 1.9570737270588998 0.0 0.0 0.6354145425399089 0.7721711980699606
126 27.581532732206494 18.532626031803595 44.916763043332324 5.930227935035647 1.9767426450118655 1.9767426450118655 0.0 -0.0 0.9631928649301144 0.2688112812880415
127 2.6550442200749957 33.800183541052604 45.888522323219554 5.930227935035647 1.9767426450118655 1.9767426450118655 0.0 0.0 0.6645731125154195 0.7472232451694524
128 10.323203920813691 42.83414185103853 50.14739066814309 5.989827716629883 1.9966092388766257 1.9966092388766257 0.0 -0.0 0.837305869343264 0.5467347447925007
129 39.345430919782316 38.84171925975893 7.246175039552174 5.989827716629883 1.9966092388766257 1.9966092388766257 0.0 0.0 0.6718759690179156 0.7406636768846148
130 35.01639550529643 57.27901091257901 7.654024472303395 6.050026485987462 2.016675495329137 2.016675495329137 0.0 -0.0 0.8172568989423515 0.5762735124323614
131 8.583353769036936 26.79831881378475 53.69417745682291 6.050026485987462 2.016675495329137 2.016675495329137 0.0 0.0 0.5650588956672867 0.8250505708302167
132 31.580304772248038 54.42111231840717 57.817484126543675 6.110830263035283 2.0369434210117343 2.0369434210117343 0.0 0.0 0.5632303093681869 0.8262999568008076
133 26.151059414888607 54.14473993949597 39.219422993019535 6.110830263035283 2.0369434210117343 2.0369434210117343 0.0 0.0 0.7047758212396541 0.7094300823872436
134 57.571652606734226 40.607039954273645 47.07078664627427 6.172245128201718 2.057415042733896 2.057415042733896 0.0 -0.0 0.7457546235329385 0.6662207152882933
135 49.5997173056526 3.0687583772510365 60.26085010246573 6.172245128201718 2.057415042733896 2.057415042733896 0.0 0.0 0.5807371118896761 0.8140911539097067
136 17.328465191839538 45.31167045708041 0.11375746689302904 6.234277223024617 2.0780924076748786 2.0780924076748786 0.0 -0.0 0.7765636880913803 0.6300387593933514
137 1.7780603902648835 48.21386451678791 29.06790556034399 6.234277223024617 2.0780924076748786 2.0780924076748786 0.0 -0.0 0.9207785641385271 0.39008567754147583
138 44.41014792592026 22.04854260249965 20.681421955464312 6.296932750765018 2.0989775835883346 2.0989775835883346 0.0 0.0 0.5933031767685688 0.8049790931672228
139 49.676678877419214 23.801624300699235 58.76986755159071 6.296932750765018 2.0989775835883346 2.0989775835883346 0.0 0.0 0.36293328461656904 0.9318151270061183
140 0.7979663970836137 10.768575951501917 39.74486189551799 6.3602179770280225 2.120072659009334 2.120072659009334 0.0 0.0 0.5657838974393875 0.8245535649054563
141 5.929112833531773 49.15948182136822 47.64678465116959 6.3602179770280225 2.120072659009334 2.120072659009334 0.0 0.0 0.5898626798291705 0.8075035720941112
142 1.4260132525554572 40.509854490645175 56.47424937505876 6.424139230388801 2.1413797434629545 2.1413797434629545 0.0 0.0 0.494526605223718 0.8691624915548904
143 31.000007969060032 16.532624996140107 4.626775795976454 6.424139230388801 2.1413797434629545 2.1413797434629545 0.0 0.0 0.6621201748514545 0.7493976741721844
144 14.794104257887472 35.09379608596782 47.91606335870922 6.48870290302621 2.1629009676754105 2.1629009676754105 0.0 -0.0 0.8358120424685423 0.5490156916378287
145 58.53855299294768 44.55233452315149 20.220157949445735 6.48870290302621 2.1629009676754105 2.1629009676754105 0.0 -0.0 0.7380766977143534 0.6747168208152773
146 33.28033657575489 52.97330061421521 50.97875889132026 6.5539154513611555 2.1846384837870523 2.1846384837870523 0.0 0.0 0.5600689403365469 0.8284460043179022
147 39.17286353411754 21.78578357144064 42.415794098010096 6.5539154513611555 2.1846384837870523 2.1846384837870523 0.0 -0.0 0.8053653384335279 0.5927787712543771
148 2.7825836001460185 31.196539940515514 50.988662517479725 6.619783396702846 2.206594465567603 2.206594465567603 0.0 -0.0 0.9475491048281723 0.31961022189430877
149 49.935376946883885 11.644839060672613 26.872332366665745 6.619783396702846 2.206594465567603 2.206594465567603 0.0 -0.0 0.8855269061838191 0.46458809543994295
150 28.55364483861808 10.611026339685411 17.26737427149668 6.686313325900723 2.228771108633576 2.228771108633576 0.0 -0.0 0.8997163709941051 0.43647502994466686
151 33.74213747931957 37.48535479704799 38.81819574157977 6.686313325900723 2.228771108633576 2.228771108633576 0.0 0.0 0.6949034215940625 0.7191030765174521
152 57.5436306554652 34.913751261296134 11.875238373112783 6.753511892003131 2.2511706306676884 2.2511706306676884 0.0 0.0 0.6496096252583186 0.7602679361723385
153 29.230310343435292 6.761658091074825 7.818285683624385 6.753511892003131 2.2511706306676884 2.2511706306676884 0.0 0.0 0.6980264017745981 0.7160720232110785
154 51.980615004229875 5.908438660885508 7.091609022756481 6.821385814922626 2.2737952716408785 2.2737952716408785 0.0 -0.0 0.9126309719920443 0.4087844284716046
155 22.419550271509497 35.126710775369986 5.137826954941406 6.821385814922626 2.2737952716408785 2.2737952716408785 0.0 0.0 0.34897032679986184 0.9371337743423815
156 26.61316638772721 28.172244559746712 51.31693678286955 6.889941882108146 2.2966472940360574 2.2966472940360574 0.0 0.0 0.6995675014656925 0.7145665195718649
157 20.896815866062113 27.035921053256303 46.57105968206173 6.889941882108146 2.2966472940360574 2.2966472940360574 0.0 0.0 0.63565327495599 0.7719746848425306
158 50.73417502994257 7.520547382293801 45.289327011680534 6.9591869492235565 2.3197289830745187 2.3197289830745187 0.0 -0.0 0.7426985308561326 0.6696259345814963
159 9.623766045240483 31.94875419400119 8.916279968030146 6.9591869492235565 2.3197289830745187 2.3197289830745187 0.0 0.0 0.4891044501540252 0.8722252213961303
160 51.03255081297303 37.195300548265195 22.32178709643857 7.029127940833212 2.343042646944419 2.343042646944419 0.0 0.0 0.6466947184788655 0.7627489371290798
161 33.13189897616222 15.235879399464654 35.76211790042478 7.029127940833212 2.343042646944419 2.343042646944419 0.0 0.0 0.6377575578887067 0.7702371695496348
162 22.252314979526762 16.645804915049414 13.922120381083783 7.099771851094621 2.366590617031525 2.366590617031525 0.0 0.0 0.6701572236966805 0.7422191694689361
163 40.72430818627868 0.11131005336896749 36.2935071190753 7.099771851094621 2.366590617031525 2.366590617031525 0.0 -0.0 0.7797338016261434 0.6261111711203069
164 48.27544717946571 47.29857251205234 33.680155636567434 7.171125744457547 2.3903752481525156 2.3903752481525156 0.0 0.0 0.6966086930688543 0.7174512727293072
165 42.72210053008734 19.583727837123543 33.315617192380465 7.171125744457547 2.3903752481525156 2.3903752481525156 0.0 -0.0 0.8994069955971553 0.43711217813153935
6_B 28.6995517556268 61.136437014336074 21.23212017465906 2.560141805888011 0.8533806019626764 0.8533806019626764 0.0 0.0 0.643710445538684 0.7652691437033046
7_B 39.70263634631149 61.532676296706136 26.927099256873188 2.5858716587963566 0.8619572195987895 0.8619572195987895 0.0 -0.0 0.7603958793842515 0.6494598575858641
9_T 47.87046392253785 -1.7520955150702449 51.8057985003854 2.6381097314412583 0.8793699104804209 0.8793699104804209 0.0 -0.0 0.7176002965020949 0.6964551776389529
23_B 44.23746014304612 63.78554063002161 48.59072424774953 3.0345485025871457 1.0115161675290414 1.0115161675290414 0.0 -0.0 0.7582829367961579 0.651925599868416
25_T 18.28815156341146 -2.0013344746019968 1.0765280369796457 3.0958504487156007 1.0319501495718577 1.0319501495718577 0.0 0.0 0.6637035342538496 0.7479957343587923
27_L -0.390411159305188 19.31038925853428 20.709531930613426 3.1583907763020487 1.0527969254340284 1.0527969254340284 0.0 -0.0 0.7297620279401082 0.6837012378054764
30_B 18.69151902061586 62.097264046292516 23.640151980686795 3.2545780954374193 1.08485936514581 1.08485936514581 0.0 -0.0 0.8433777540022546 0.5373210995802349
38_B 22.4969595067062 61.84729057370958 13.218124481350735 3.525642361525538 1.1752141205085092 1.1752141205085092 0.0 0.0 0.5145463711011363 0.8574625542766586
41_L -1.0824414576522585 10.798085276583794 48.63721184938464 3.633014156532593 1.2110047188441972 1.2110047188441972 0.0 0.0 0.5813114541301716 0.8136811373609846
42_T 15.979871065797546 -2.040189041027176 40.53069880282374 3.6695265558248975 1.223175518608299 1.223175518608299 0.0 0.0 0.6858728758951139 0.7277213739552836
48_L -1.1609686407745698 55.18964182054487 19.641813070399618 3.8964374054936015 1.2988124684978681 1.2988124684978681 0.0 0.0 0.43861391052531945 0.8986756019241242
57_T 53.671510637861665 -1.3188002502988638 49.844708994574255 4.1789609951368085 1.3929869983789358 1.3929869983789358 0.0 0.0 0.6906372933410847 0.7232013060320761
59_T 30.326013731526636 -2.648970184795438 23.5272853704569 4.22096025137615 1.406986750458713 1.406986750458713 0.0 -0.0 0.8334397726994561 0.5526103014626843
60_F 40.263599359872856 28.443099190757696 -1.1945901187681471 4.263381607158133 1.4211272023860413 1.4211272023860413 0.0 -0.0 0.8251393648538317 0.5649292243888745
67_L -0.6865502218990969 12.988365898177623 13.067112385018518 4.393220907070123 1.4644069690233783 1.4644069690233783 0.0 -0.0 0.7991221049958454 0.6011687461162707
75_B 57.748916566331886 64.9039519401945 30.114285785868464 4.57251165348585 1.5241705511619534 1.5241705511619534 0.0 0.0 0.6669694181073614 0.7450850926636016
76_R 62.644027537276116 11.67253328019239 23.53904981080395 4.618466159597653 1.539488719865902 1.539488719865902 0.0 0.0 0.4849872773235938 0.8745212066235144
81_T 5.010810656765765 -4.295445937893383 38.38757256678407 4.711765364889784 1.5705884549632474 1.5705884549632474 0.0 0.0 0.683142879342022 0.730284743373632
82_F 12.941604610023823 16.054611723969497 -1.1620144499325775 4.759119394068304 1.5863731313560907 1.5863731313560907 0.0 0.0 0.3480344086077516 0.937481760049257
90_B 14.458738169404112 63.524806530930945 46.354689876556044 4.9533427410142465 1.6511142470047342 1.6511142470047342 0.0 -0.0 0.7664413141092511 0.642314340511314