ITEM: TIMESTEP
376
ITEM: NUMBER OF ATOMS
224
ITEM: BOX BOUNDS ff ff ff
0 60.9
60.9 0
60.9 0
ITEM: ATOMS id x y z AsphericalShapeX AsphericalShapeY AsphericalShapeZ OrientationX OrientationY OrientationZ OrientationW
1 47.395288943047305 46.106972923918974 26.99586596392611 2.6611634657361356 0.8870544885787169 0.8870544885787169 0.0 -0.0 0.7863642711635499 0.6177630881150306
2 15.207375905987814 12.47174121650874 24.36997770623805 2.687908603205073 0.8959695344016788 0.8959695344016788 0.0 -0.0 0.8896314041555925 0.4566792799549252
3 11.851776283100925 25.69418583275515 58.69141244080374 2.7149225337742293 0.9049741779247455 0.9049741779247455 0.0 0.0 0.631512325711268 0.7753658378305981
4 18.745421283728657 54.77723565327413 45.960087895312824 2.742207958859263 0.9140693196197454 0.9140693196197454 0.0 0.0 0.5765741652112841 0.8170448164029381
5 44.19890372344817 5.8188881864793505 10.728424866559502 2.7697676070253343 0.9232558690084345 0.9232558690084345 0.0 -0.0 0.8873914294477543 0.4610167577677315
6 27.58540743078362 2.539745881968476 19.491716799650987 2.7976042342602367 0.9325347447534182 0.9325347447534182 0.0 0.0 0.643710445538684 0.7652691437033046
7 37.37166084761978 0.17046488482819372 28.1542379911462 2.8257206242499318 0.9419068747499824 0.9419068747499824 0.0 -0.0 0.7603958793842515 0.6494598575858641
8 45.65814631590809 33.60752398807893 15.17633076603777 2.854119588656816 0.9513731962189379 0.9513731962189379 0.0 -0.0 0.7854601334426244 0.6189122545016335
9 47.62089743974968 58.674869330406395 50.39846329774942 2.882803967401028 0.9609346558003442 0.9609346558003442 0.0 -0.0 0.7176002965020949 0.6964551776389529
10 4.582025366601698 3.7620171509087474 12.527254049116307 2.9117766289443034 0.9705922096481056 0.9705922096481056 0.0 0.0 0.38534345666417513 0.9227732226317065
11 28.85932801530838 23.46284121332649 2.0236262837265655 2.9410404705769695 0.980346823525651 0.980346823525651 0.0 0.0 0.49983922045674145 0.866118209999765
12 0.5610381140052991 6.387522823837265 23.990134896402108 2.9705984187075445 0.9901994729025135 0.9901994729025135 0.0 0.0 0.2746680171135514 0.9615391205639581
13 10.052057247903631 55.41359886980721 22.790268811070554 3.00045342915556 1.000151143051844 1.000151143051844 0.0 -0.0 0.7886508549344257 0.614841303924191
14 14.430593522366063 30.18934552776086 27.311718382595636 3.0306084874468264 1.0102028291489282 1.0102028291489282 0.0 -0.0 0.7750680292508737 0.6318777967559605
15 24.586975798309666 47.97172805894518 25.083998145546328 3.061066609112336 1.0203555363707808 1.0203555363707808 0.0 0.0 0.6340811782098568 0.7732664866913604
16 13.983967055583225 37.33810926671722 54.78945212525498 3.091830839989723 1.0306102799965644 1.0306102799965644 0.0 -0.0 0.7629176367612683 0.6464956918020424
17 27.58490614153783 12.141264001380033 34.56113889053762 3.122904256527583 1.0409680855091876 1.0409680855091876 0.0 0.0 0.6579222258448839 0.7530858813836
18 38.63618327103437 32.9631724070026 13.582009259429949 3.154289966093551 1.0514299886978435 1.0514299886978435 0.0 0.0 0.506211649243881 0.8624092799650234
19 17.703396731999774 14.771609367095666 41.37246499021007 3.1859911072847154 1.0619970357615611 1.0619970357615611 0.0 0.0 0.6434542777811493 0.7654845474633303
20 28.118141390883576 58.231996070354846 29.279605304081024 3.2180108502415927 1.0726702834138686 1.0726702834138686 0.0 -0.0 0.7861857262579329 0.6179902942832407
21 44.04919531147409 23.494891471590726 51.57095643414175 3.250352396965185 1.08345079898838 1.08345079898838 0.0 0.0 0.6069811502172251 0.7947162281474907
22 8.309272239409873 51.969098558023134 42.74465616195981 3.2830189816370683 1.0943396605456954 1.0943396605456954 0.0 -0.0 0.8910647246123514 0.45387625687131333
23 45.006846500286485 58.42787944264027 49.11327137509996 3.3160138709430558 1.1053379569810138 1.1053379569810138 0.0 -0.0 0.7582829367961579 0.651925599868416
24 27.97165273565086 7.62598090803287 51.61057254355505 3.3493403643994495 1.1164467881331515 1.1164467881331515 0.0 0.0 0.5255054740936084 0.8507902189715464
25 20.231727655913666 59.05720460731605 59.46424133910255 3.383001794683429 1.1276672648944648 1.1276672648944648 0.0 0.0 0.6637035342538496 0.7479957343587923
26 57.08873122488006 6.642597172961398 36.27647354622899 3.4170015279659847 1.1390005093220066 1.1390005093220066 0.0 0.0 0.5361151400853296 0.8441448670526212
27 60.80578204021693 14.81202858510216 20.806831474349853 3.451342964248901 1.1504476547496458 1.1504476547496458 0.0 -0.0 0.7297620279401082 0.6837012378054764
28 21.823226087498426 37.0337684562345 37.93795570250972 3.4860295377043733 1.1620098459014538 1.1620098459014538 0.0 -0.0 0.9828164757017253 0.18458541407500267
29 45.15592616700884 27.797692174941165 30.006611524291866 3.5210647170186555 1.1736882390062267 1.1736882390062267 0.0 -0.0 0.8740853421614372 0.4857723897243679
30 18.302917675469676 2.2819630499840073 26.324160648948663 3.5564520057388576 1.1854840019129609 1.1854840019129609 0.0 -0.0 0.8433777540022546 0.5373210995802349
31 48.568853091977935 43.377353182590454 47.061176429750965 3.592194942623362 1.1973983142077966 1.1973983142077966 0.0 0.0 0.6952778540174372 0.7187410560924617
32 1.8893286165371066 35.6845550718183 36.206497194880136 3.628297101995617 1.2094323673318812 1.2094323673318812 0.0 0.0 0.6353234605105568 0.7722461398575527
33 24.186578921701336 23.037569210993563 24.62645859690658 3.664762094101684 1.2215873647005577 1.2215873647005577 0.0 0.0 0.6411270229476993 0.7674347792784871
34 12.983720643386638 16.138691103693724 33.58592857159352 3.7015935654711254 1.233864521823719 1.233864521823719 0.0 -0.0 0.7453722743584635 0.6666484625480594
35 28.931534292156652 44.367908728537984 41.02497896584693 3.7387951992818254 1.2462650664272785 1.2462650664272785 0.0 -0.0 0.7109313362059317 0.7032614273514853
36 33.59652438713717 12.058545478543445 10.362628241659165 3.776370715728052 1.258790238576028 1.258790238576028 0.0 -0.0 0.739632735620696 0.6730107104632479
37 18.1713070311068 52.8269749880841 24.218049924877615 3.8143238723928934 1.2714412907976431 1.2714412907976431 0.0 0.0 0.5163603530767541 0.8563714064414165
38 24.02998564943452 6.589272009302506 17.54976795450613 3.8526584646235555 1.2842194882078484 1.2842194882078484 0.0 0.0 0.5145463711011363 0.8574625542766586
39 12.62190105773414 20.773320295266764 28.25890858395948 3.8913783259112735 1.2971261086370913 1.2971261086370913 0.0 0.0 0.5880831456971182 0.8088004783300898
40 55.47975850043451 20.16589893128688 17.253005889653306 3.9304873282744257 1.3101624427581289 1.3101624427581289 0.0 -0.0 0.8608342640850161 0.5088854191045453
41 5.165561916806206 11.42484550692787 43.04880422414959 3.969989382645761 1.3233297942152509 1.3233297942152509 0.0 0.0 0.5813114541301716 0.8136811373609846
42 18.441507802744063 59.19676383057206 41.678131641990724 4.009888439263729 1.3366294797545761 1.3366294797545761 0.0 0.0 0.6858728758951139 0.7277213739552836
43 10.110779554869485 14.274088069105126 29.72438498321228 4.050188488067174 1.3500628293557344 1.3500628293557344 0.0 -0.0 0.8971229945165649 0.4417808650333688
44 41.270052163699006 15.05045374323716 34.13949264863788 4.090893559094682 1.363631186364878 1.363631186364878 0.0 -0.0 0.7662793896249596 0.6425075073771507
45 32.057616134939124 38.738016234160526 34.39936318402554 4.1320077228870815 1.3773359076290244 1.3773359076290244 0.0 -0.0 0.8021859139948743 0.5970743332184094
46 20.98472464136306 27.765010588802987 14.973972023957032 4.173535090895185 1.391178363631731 1.391178363631731 0.0 0.0 0.6689296931602822 0.7433256793683982
47 48.49680013685973 13.540385569276198 13.866435823001865 4.215479815890307 1.4051599386301024 1.4051599386301024 0.0 -0.0 0.8121614142020023 0.5834328044268712
48 60.487995209052734 0.926128448749558 19.280990735482188 4.257846092379965 1.4192820307933227 1.4192820307933227 0.0 0.0 0.43861391052531945 0.8986756019241242
49 21.866799263181832 18.900703554750645 4.573890591876921 4.300638157027029 1.433546052342348 1.433546052342348 0.0 -0.0 0.7611420715427216 0.6485851886434459
50 32.56851747785285 12.546212372198688 52.616318094830504 4.343860289073687 1.447953429691234 1.447953429691234 0.0 0.0 0.5689873473401131 0.8223462765568174
51 4.012821063878222 20.138758825161535 40.59017423308628 4.38751681076921 1.4625056035897208 1.4625056035897208 0.0 -0.0 0.9816329176571261 0.1907794930592849
52 32.91190940647856 45.15322324362162 25.432676972296825 4.431612087802012 1.47720402926733 1.47720402926733 0.0 -0.0 0.8312938914163103 0.5558331279205367
53 11.671285438649626 58.301413220119024 7.879272526565998 4.476150529736606 1.492050176578886 1.492050176578886 0.0 0.0 0.4937832216878833 0.8695850332081013
54 32.15728133959248 50.751390040022606 42.86087933602467 4.521136590454349 1.5070455301514467 1.5070455301514467 0.0 -0.0 0.7425013715714329 0.6698445440656666
55 22.21211114402794 47.885382335082255 7.8215729200517865 4.521136590454349 1.5070455301514467 1.5070455301514467 0.0 -0.0 0.899222239431846 0.4374921303419936
56 41.194878163555856 14.32971320178093 21.171304922872203 4.566574768598773 1.5221915895329217 1.5221915895329217 0.0 0.0 0.591041689671776 0.8066410112744902
57 54.13044018896436 57.39707581243471 51.17352585344496 4.566574768598773 1.5221915895329217 1.5221915895329217 0.0 0.0 0.6906372933410847 0.7232013060320761
58 32.91266663992122 49.07637104603231 32.98565474903432 4.612469608025529 1.5374898693418395 1.5374898693418395 0.0 -0.0 0.9778925487455288 0.20910801779935065
59 32.26460201414603 55.06350642343787 25.435743685102445 4.612469608025529 1.5374898693418395 1.5374898693418395 0.0 -0.0 0.8334397726994561 0.5526103014626843
60 42.27352502383839 28.452962800727025 55.59988180600977 4.658825698256872 1.5529418994189494 1.5529418994189494 0.0 -0.0 0.8251393648538317 0.5649292243888745
61 6.709932160601804 41.29115664162841 37.79928244039404 4.658825698256872 1.5529418994189494 1.5529418994189494 0.0 -0.0 0.8342848482439009 0.5513336485202505
62 17.868389428606505 54.000742649087094 29.800291789510688 4.705647674940342 1.5685492249801078 1.5685492249801078 0.0 0.0 0.6993489688984815 0.7147803996337831
63 40.30259895046749 55.17650692569021 52.41571728571177 4.705647674940342 1.5685492249801078 1.5685492249801078 0.0 0.0 0.6638694557235675 0.747848477806363
64 41.437310890002195 43.95107282999537 39.77794318601855 4.752940220312767 1.584313406770914 1.584313406770914 0.0 0.0 0.5469534661185369 0.8371630103515794
65 23.68341009892043 12.95712524934247 0.44563542932594696 4.752940220312767 1.584313406770914 1.584313406770914 0.0 0.0 0.534266604389083 0.8453160328744268
66 37.01823523436168 15.471768356939052 21.37508702357204 4.800708063667919 1.6002360212226483 1.6002360212226483 0.0 0.0 0.49259387534365895 0.8702593142126752
67 60.30027054277152 18.799843755576095 12.021417497451537 4.800708063667919 1.6002360212226483 1.6002360212226483 0.0 -0.0 0.7991221049958454 0.6011687461162707
68 40.689462409927955 35.40832220403373 25.393324038333468 4.848955981830094 1.6163186606100417 1.6163186606100417 0.0 -0.0 0.8113628171424923 0.5845428803420658
69 38.827079320505064 12.320758805073064 56.689652812878464 4.848955981830094 1.6163186606100417 1.6163186606100417 0.0 0.0 0.69974083585519 0.7143967823532522
70 60.19343907594977 49.947548526971275 25.237222936989454 4.89768879963129 1.6325629332104155 1.6325629332104155 0.0 -0.0 0.9226100212719841 0.3857340387475665
71 27.533826081816386 8.497016585364882 31.688225598968693 4.89768879963129 1.6325629332104155 1.6325629332104155 0.0 -0.0 0.8908476943010929 0.4543020862360491
72 5.431356693676041 46.13118289242163 8.85462698045706 4.946911390393833 1.6489704634646134 1.6489704634646134 0.0 -0.0 0.9180976465577227 0.39635427509384946
73 47.3620425011818 30.369507109593997 35.25909930451422 4.946911390393833 1.6489704634646134 1.6489704634646134 0.0 0.0 0.6852526383261238 0.7283054453092375
74 47.29931440343318 47.78073087752121 8.377952305211117 4.996628676417873 1.6655428921392945 1.6655428921392945 0.0 0.0 0.6622208999947843 0.7493086677799063
75 3.042205151933454 0.14082091421445495 33.460083346103666 4.996628676417873 1.6655428921392945 1.6655428921392945 0.0 0.0 0.6669694181073614 0.7450850926636016
76 55.656111602267856 10.448820143368657 27.8690872725705 5.046845629473375 1.6822818764911474 1.6822818764911474 0.0 0.0 0.4849872773235938 0.8745212066235144
77 17.5832819386107 42.48897115188472 17.11733195478703 5.046845629473375 1.6822818764911474 1.6822818764911474 0.0 -0.0 0.724549744492829 0.6892225096116464
78 4.853146177282839 12.255607196122702 7.262460195174526 5.097567271297603 1.6991890904325342 1.6991890904325342 0.0 0.0 0.646327957303847 0.7630597431442944
79 3.8483079235084965 20.74852593213416 30.628510800072714 5.097567271297603 1.6991890904325342 1.6991890904325342 0.0 0.0 0.4210348644808628 0.9070444547493698
80 52.609913882215075 13.324574248287735 19.816543201828075 5.148798674096964 1.716266224698967 1.716266224698967 0.0 0.0 0.5786941501693628 0.8155446527074768
81 3.142342234780133 50.92858395580555 35.08964276938043 5.148798674096964 1.716266224698967 1.716266224698967 0.0 0.0 0.683142879342022 0.730284743373632
82 10.582067866621145 20.18288655723556 59.31737098594972 5.2005449610543595 1.7335149870181044 1.7335149870181044 0.0 0.0 0.3480344086077516 0.937481760049257
83 20.97313587359332 2.1999742146743912 1.670133039739703 5.2005449610543595 1.7335149870181044 1.7335149870181044 0.0 -0.0 0.8280938516825816 0.560589486884571
84 33.810824532589436 49.54025030040676 13.46119286168068 5.252811306841655 1.7509371022805655 1.7509371022805655 0.0 -0.0 0.8521868438699086 0.5232375972109076
85 23.2449224405993 37.08102023682977 30.37790596892796 5.252811306841655 1.7509371022805655 1.7509371022805655 0.0 0.0 0.2683204071818837 0.9633297250109892
86 11.18179148916644 49.10386652718319 56.483425968170046 5.305602938137008 1.7685343127123536 1.7685343127123536 0.0 0.0 0.5717525694490604 0.8204261083902665
87 15.368923613457078 5.328578951104449 42.23920013963292 5.305602938137008 1.7685343127123536 1.7685343127123536 0.0 -0.0 0.7407334016199733 0.6717990977401677
88 22.578990405729055 54.60046032585831 52.16755145852974 5.358925134147582 1.7863083780491775 1.7863083780491775 0.0 0.0 0.6524446383875427 0.7578363898885753
89 18.73077203072371 29.211895711754366 42.60471906211352 5.358925134147582 1.7863083780491775 1.7863083780491775 0.0 0.0 0.3815125934194192 0.9243636411404275
90 15.30902744435239 57.555371999213136 48.74486980591776 5.412783227137318 1.8042610757124176 1.8042610757124176 0.0 -0.0 0.7664413141092511 0.642314340511314
91 37.76366142111562 10.774015795444607 31.858994466805026 5.412783227137318 1.8042610757124176 1.8042610757124176 0.0 -0.0 0.7164030651197486 0.6976866404676452
92 54.86053861975566 23.61911911730072 46.62191007432803 5.467182602960383 1.822394200986792 1.822394200986792 0.0 0.0 0.3159382626609752 0.9487797500931208
93 12.284936761137875 41.07928680666225 39.16444709169708 5.467182602960383 1.822394200986792 1.822394200986792 0.0 -0.0 0.807675111463051 0.5896277760783901
94 59.444280710870444 9.434122996594425 44.36765521535227 5.522128701599785 1.8407095671999507 1.8407095671999507 0.0 0.0 0.5856043209472178 0.8105970511221638
95 44.573188989512325 17.83518742991324 53.99198864310563 5.522128701599785 1.8407095671999507 1.8407095671999507 0.0 -0.0 0.8283891439806925 0.5601530381377355
96 34.9249501796589 2.7999963662506064 40.31505179910333 5.577627017711129 1.859209005903735 1.859209005903735 0.0 0.0 0.6380161188650698 0.7700230074928626
97 30.641212259234823 23.6447381289236 26.263861857438293 5.577627017711129 1.859209005903735 1.859209005903735 0.0 0.0 0.5652655734899162 0.8249089837231233
98 19.329432416759918 22.049231878936844 41.05580550166526 5.633683101172341 1.8778943670574486 1.8778943670574486 0.0 -0.0 0.9884337224668884 0.15165347437579585
99 48.748983071488254 28.682931763633327 11.530294856874633 5.633683101172341 1.8778943670574486 1.8778943670574486 0.0 0.0 0.644584962479319 0.7645326848117973
100 35.87116136141874 16.547835241673297 55.317965763030045 5.690302557638362 1.8967675192127862 1.8967675192127862 0.0 -0.0 0.7665764345255346 0.6421530736748979
101 14.737228035487577 34.1628210000448 58.75464726097723 5.690302557638362 1.8967675192127862 1.8967675192127862 0.0 -0.0 0.7486465484609144 0.6629693397718779
102 39.39966569495949 18.212050334516277 16.42158795627384 5.747491049102072 1.9158303497006968 1.9158303497006968 0.0 -0.0 0.764238184631255 0.644934102952793
103 25.720290765833436 23.566140286750095 13.23919692988873 5.747491049102072 1.9158303497006968 1.9158303497006968 0.0 -0.0 0.7262700822056904 0.6874094614514261
104 42.86152964962153 57.16693896071775 43.57901192316545 5.8052542944603935 1.9350847648201024 1.9350847648201024 0.0 0.0 0.6864264585310771 0.7271992278794606
105 20.091598319998145 58.18923686085525 13.970023395872357 5.8052542944603935 1.9350847648201024 1.9350847648201024 0.0 -0.0 0.8498704758576332 0.5269916263713497
106 15.990741534514981 33.407074106661085 52.49339022281879 5.86359807008577 1.9545326900285906 1.9545326900285906 0.0 -0.0 0.793590538753224 0.6084521811953406
107 45.07192064777299 13.782081835724323 17.550831707906973 5.86359807008577 1.9545326900285906 1.9545326900285906 0.0 -0.0 0.8299364941277125 0.5578578812878792
108 51.53968340558236 13.822594122592385 60.30354284982387 5.9225282104045585 1.9741760701348259 1.9741760701348259 0.0 -0.0 0.7596155095013813 0.650372414640225
109 9.372757019199708 50.24902770397375 47.674709255318355 5.9225282104045585 1.9741760701348259 1.9741760701348259 0.0 -0.0 0.746179639226726 0.6657446552571586
110 34.06108084222978 13.694745654218837 49.303558897470786 5.982050608479807 1.9940168694932412 1.9940168694932412 0.0 -0.0 0.7434755474029917 0.6687631198068729
111 37.79824764995265 59.41094355537221 15.877577805185204 5.982050608479807 1.9940168694932412 1.9940168694932412 0.0 -0.0 0.7635489887521677 0.6457499065238353
112 47.39341653395777 3.6403582831359396 19.678741603452583 6.042171216600914 2.0140570722003326 2.0140570722003326 0.0 -0.0 0.925703395166632 0.3782502137170186
113 15.428500742858276 2.9268560490073425 15.375534858855524 6.042171216600914 2.0140570722003326 2.0140570722003326 0.0 -0.0 0.7476030998596368 0.6641457709571461
114 55.17350596441239 24.439453172691547 33.45128374832335 6.102896046878921 2.0342986822929743 2.0342986822929743 0.0 -0.0 0.7095009508808979 0.7047044775642494
115 30.868927630594275 36.67846329207203 59.7639099565564 6.102896046878921 2.0342986822929743 2.0342986822929743 0.0 0.0 0.692332939305712 0.7215782016887105
116 19.39416368442828 5.937767518199855 50.45006665564498 6.164231171847418 2.0547437239491124 2.0547437239491124 0.0 0.0 0.4838188577050026 0.8751681626573412
117 0.8468366059669485 44.23937918959554 28.464838141648606 6.164231171847418 2.0547437239491124 2.0547437239491124 0.0 0.0 0.4072390243389004 0.9133216175343166
118 41.621438827788964 15.838079417011832 0.07130575368212252 6.2261827250698545 2.075394241689953 2.075394241689953 0.0 -0.0 0.9854258972554679 0.17010526452245991
119 34.331786387675926 40.37870111118925 0.8632820610415304 6.2261827250698545 2.075394241689953 2.075394241689953 0.0 0.0 0.693566054094668 0.720393037589587
120 37.89879816222962 34.11659721801946 29.341563155260154 6.288756901753364 2.096252300584456 2.096252300584456 0.0 -0.0 0.8546373086497397 0.5192254526349123
121 58.42671299972611 35.284130271409786 55.71113645367535 6.288756901753364 2.096252300584456 2.096252300584456 0.0 -0.0 0.738138054050796 0.6746496966293722
122 54.05066458707832 24.4270739574639 56.473195602342514 6.3519599593677025 2.11731998645592 2.11731998645592 0.0 0.0 0.30497028615780525 0.9523618663936657
123 39.72638788225976 29.532527241899203 43.90915201538223 6.3519599593677025 2.11731998645592 2.11731998645592 0.0 -0.0 0.8240326158671573 0.5665423620411186
124 44.485280230423754 49.294674440397046 54.038884869104386 6.415798218271376 2.138599406090451 2.138599406090451 0.0 -0.0 0.7351480847541838 0.6779065521753388
125 41.62411640990759 41.77281352347065 47.3015240515098 6.415798218271376 2.138599406090451 2.138599406090451 0.0 0.0 0.6354145425399089 0.7721711980699606
126 26.429912736011484 13.94114391473154 44.336190692671096 6.480278062343303 2.160092687447755 2.160092687447755 0.0 -0.0 0.9631928649301144 0.2688112812880415
127 2.083222837827603 35.67461157364454 43.65904545541155 6.480278062343303 2.160092687447755 2.160092687447755 0.0 0.0 0.6645731125154195 0.7472232451694524
128 12.729042186855759 45.96607964010299 50.67616190879915 6.545405939621638 2.1818019798738777 2.1818019798738777 0.0 -0.0 0.837305869343264 0.5467347447925007
129 37.244059996465666 48.09605751888867 3.6376816126253946 6.545405939621638 2.1818019798738777 2.1818019798738777 0.0 0.0 0.6718759690179156 0.7406636768846148
130 35.26268195163328 4.65308456471468 11.58787188654852 6.611188362948627 2.2037294543161874 2.2037294543161874 0.0 -0.0 0.8172568989423515 0.5762735124323614
131 10.443539417015725 25.941070340110098 49.25196179925917 6.611188362948627 2.2037294543161874 2.2037294543161874 0.0 0.0 0.5650588956672867 0.8250505708302167
132 29.508696506812154 3.980714750078726 56.121786181658834 6.677631910621174 2.2258773035403645 2.2258773035403645 0.0 0.0 0.5632303093681869 0.8262999568008076
133 21.791532038006736 43.344957386626426 41.700109310728195 6.677631910621174 2.2258773035403645 2.2258773035403645 0.0 0.0 0.7047758212396541 0.7094300823872436
134 57.9956037989809 46.710847501297145 47.60345181195344 6.7447432270494065 2.2482477423497924 2.2482477423497924 0.0 -0.0 0.7457546235329385 0.6662207152882933
135 44.51659399791453 6.074644148291152 59.0294996501869 6.7447432270494065 2.2482477423497924 2.2482477423497924 0.0 0.0 0.5807371118896761 0.8140911539097067
136 16.256558721054507 46.0909575609738 59.914106920427095 6.812529023421104 2.270843007807036 2.270843007807036 0.0 -0.0 0.7765636880913803 0.6300387593933514
137 8.436997337180685 47.1954527790752 26.774056957479832 6.812529023421104 2.270843007807036 2.270843007807036 0.0 -0.0 0.9207785641385271 0.39008567754147583
138 47.635729156159805 18.161817854658587 21.580693033093645 6.880996078372215 2.293665359457391 2.293665359457391 0.0 0.0 0.5933031767685688 0.8049790931672228
139 55.76856889562358 20.96131549074629 2.408272567425233 6.880996078372215 2.293665359457391 2.293665359457391 0.0 0.0 0.36293328461656904 0.9318151270061183
140 3.6127629267444465 5.733579897993367 37.5638931424101 6.9501512386654065 2.316717079555129 2.316717079555129 0.0 0.0 0.5657838974393875 0.8245535649054563
141 0.15252982427648554 58.90960692556874 48.50877470536761 6.9501512386654065 2.316717079555129 2.316717079555129 0.0 0.0 0.5898626798291705 0.8075035720941112
142 3.9604274169034652 42.149568446528335 57.07330420913502 7.020001419874132 2.340000473291403 2.340000473291403 0.0 0.0 0.494526605223718 0.8691624915548904
143 31.257512604605683 11.56027990209827 0.22319405264049272 7.020001419874132 2.340000473291403 2.340000473291403 0.0 0.0 0.6621201748514545 0.7493976741721844
144 13.483759884797156 38.165843127680084 49.345551590537966 7.090553607075025 2.3635178690250154 2.3635178690250154 0.0 -0.0 0.8358120424685423 0.5490156916378287
145 59.8178000795296 34.97584199781057 20.70509997916017 7.090553607075025 2.3635178690250154 2.3635178690250154 0.0 -0.0 0.7380766977143534 0.6747168208152773
146 30.396395760129536 53.0389586175181 50.28935188935035 7.161814855545379 2.387271618515127 2.387271618515127 0.0 0.0 0.5600689403365469 0.8284460043179022
147 37.83927773505809 22.67764590595878 38.86355654809134 7.161814855545379 2.387271618515127 2.387271618515127 0.0 -0.0 0.8053653384335279 0.5927787712543771
148 59.96181824910478 26.249808961628172 50.41894750624019 7.233792291469487 2.4112640971564883 2.4112640971564883 0.0 -0.0 0.9475491048281723 0.31961022189430877
149 43.63716775434131 2.451466008350496 26.73614122822218 7.233792291469487 2.4112640971564883 2.4112640971564883 0.0 -0.0 0.8855269061838191 0.46458809543994295
150 29.644146573861377 16.10663708443083 16.614920469859673 7.306493112650936 2.4354977042169805 2.4354977042169805 0.0 -0.0 0.8997163709941051 0.43647502994466686
151 33.72626397164526 40.342078966506996 43.55787297525353 7.306493112650936 2.4354977042169805 2.4354977042169805 0.0 0.0 0.6949034215940625 0.7191030765174521
152 59.21592246108887 45.31163574637352 8.065622471124133 7.379924589232416 2.45997486307745 2.45997486307745 0.0 0.0 0.6496096252583186 0.7602679361723385
153 25.795412276597347 1.9751949632978998 5.92409188394933 7.379924589232416 2.45997486307745 2.45997486307745 0.0 0.0 0.6980264017745981 0.7160720232110785
154 48.38047804277322 58.214371702352125 6.429287887116155 7.454094064422695 2.4846980214742302 2.4846980214742302 0.0 -0.0 0.9126309719920443 0.4087844284716046
155 23.496075110776367 32.1897294221544 7.09560031007601 7.454094064422695 2.4846980214742302 2.4846980214742302 0.0 0.0 0.34897032679986184 0.9371337743423815
156 34.811459841217356 27.43748438111656 47.68229880172312 7.529008955231219 2.5096696517437436 2.5096696517437436 0.0 0.0 0.6995675014656925 0.7145665195718649
157 18.923860489519463 27.33749085899275 47.45117935399894 7.529008955231219 2.5096696517437436 2.5096696517437436 0.0 0.0 0.63565327495599 0.7719746848425306
158 51.77133808472132 0.8795121209026983 47.79419073061245 7.604676753209509 2.534892251069841 2.534892251069841 0.0 -0.0 0.7426985308561326 0.6696259345814963
159 12.75380934623185 25.34434551635281 9.763207534121886 7.604676753209509 2.534892251069841 2.534892251069841 0.0 0.0 0.4891044501540252 0.8722252213961303
160 50.65262635283149 38.76019318843694 20.644558925851246 7.6811050252003445 2.5603683417334726 2.5603683417334726 0.0 0.0 0.6466947184788655 0.7627489371290798
161 32.9099036860052 13.831817321171355 35.484542799644466 7.6811050252003445 2.5603683417334726 2.5603683417334726 0.0 0.0 0.6377575578887067 0.7702371695496348
162 20.432971695537617 19.457117281479825 22.398828997102317 7.758301414094708 2.586100471364878 2.586100471364878 0.0 0.0 0.6701572236966805 0.7422191694689361
163 41.50565277633041 55.66501498443877 38.31235226700729 7.758301414094708 2.586100471364878 2.586100471364878 0.0 -0.0 0.7797338016261434 0.6261111711203069
164 44.99210116272192 47.80418873808498 33.700075036512146 7.836273639595638 2.612091213198546 2.612091213198546 0.0 0.0 0.6966086930688543 0.7174512727293072
165 46.67041724560801 21.784723911216144 27.952339447035936 7.836273639595638 2.612091213198546 2.612091213198546 0.0 -0.0 0.8994069955971553 0.43711217813153935
6_B 27.58540743078362 63.43974588196848 19.491716799650987 2.7976042342602367 0.9325347447534182 0.9325347447534182 0.0 0.0 0.643710445538684 0.7652691437033046
7_B 37.37166084761978 61.07046488482819 28.1542379911462 2.8257206242499318 0.9419068747499824 0.9419068747499824 0.0 -0.0 0.7603958793842515 0.6494598575858641
9_T 47.62089743974968 -2.2251306695936037 50.39846329774942 2.882803967401028 0.9609346558003442 0.9609346558003442 0.0 -0.0 0.7176002965020949 0.6964551776389529
12_R 61.4610381140053 6.387522823837265 23.990134896402108 2.9705984187075445 0.9901994729025135 0.9901994729025135 0.0 0.0 0.2746680171135514 0.9615391205639581
20_T 28.118141390883576 -2.6680039296451525 29.279605304081024 3.2180108502415927 1.0726702834138686 1.0726702834138686 0.0 -0.0 0.7861857262579329 0.6179902942832407
23_T 45.006846500286485 -2.4721205573597302 49.11327137509996 3.3160138709430558 1.1053379569810138 1.1053379569810138 0.0 -0.0 0.7582829367961579 0.651925599868416
25_T 20.231727655913666 -1.8427953926839464 59.46424133910255 3.383001794683429 1.1276672648944648 1.1276672648944648 0.0 0.0 0.6637035342538496 0.7479957343587923
27_L -0.09421795978306591 14.81202858510216 20.806831474349853 3.451342964248901 1.1504476547496458 1.1504476547496458 0.0 -0.0 0.7297620279401082 0.6837012378054764
30_B 18.302917675469676 63.181963049984006 26.324160648948663 3.5564520057388576 1.1854840019129609 1.1854840019129609 0.0 -0.0 0.8433777540022546 0.5373210995802349
42_T 18.441507802744063 -1.7032361694279388 41.678131641990724 4.009888439263729 1.3366294797545761 1.3366294797545761 0.0 0.0 0.6858728758951139 0.7277213739552836
48_LT -0.4120047909472646 0.926128448749558 19.280990735482188 4.257846092379965 1.4192820307933227 1.4192820307933227 0.0 0.0 0.43861391052531945 0.8986756019241242
48_LB -0.4120047909472646 61.82612844874956 19.280990735482188 4.257846092379965 1.4192820307933227 1.4192820307933227 0.0 0.0 0.43861391052531945 0.8986756019241242
48_RB 60.487995209052734 61.82612844874956 19.280990735482188 4.257846092379965 1.4192820307933227 1.4192820307933227 0.0 0.0 0.43861391052531945 0.8986756019241242
51_R 64.91282106387823 20.138758825161535 40.59017423308628 4.38751681076921 1.4625056035897208 1.4625056035897208 0.0 -0.0 0.9816329176571261 0.1907794930592849
53_T 11.671285438649626 -2.598586779880975 7.879272526565998 4.476150529736606 1.492050176578886 1.492050176578886 0.0 0.0 0.4937832216878833 0.8695850332081013
57_T 54.13044018896436 -3.5029241875652914 51.17352585344496 4.566574768598773 1.5221915895329217 1.5221915895329217 0.0 0.0 0.6906372933410847 0.7232013060320761
65_Ba 23.68341009892043 12.95712524934247 61.345635429325945 4.752940220312767 1.584313406770914 1.584313406770914 0.0 0.0 0.534266604389083 0.8453160328744268
67_L -0.5997294572284773 18.799843755576095 12.021417497451537 4.800708063667919 1.6002360212226483 1.6002360212226483 0.0 -0.0 0.7991221049958454 0.6011687461162707
70_L -0.7065609240502297 49.947548526971275 25.237222936989454 4.89768879963129 1.6325629332104155 1.6325629332104155 0.0 -0.0 0.9226100212719841 0.3857340387475665
75_B 3.042205151933454 61.04082091421445 33.460083346103666 4.996628676417873 1.6655428921392945 1.6655428921392945 0.0 0.0 0.6669694181073614 0.7450850926636016