ITEM: TIMESTEP
252
ITEM: NUMBER OF ATOMS
199
ITEM: BOX BOUNDS ff ff ff
0 60.9
60.9 0
60.9 0
ITEM: ATOMS id x y z AsphericalShapeX AsphericalShapeY AsphericalShapeZ OrientationX OrientationY OrientationZ OrientationW
1 41.86109701188177 54.188369566389056 22.582574299626767 1.785873625547052 0.5952912085156868 0.5952912085156868 0.0 -0.0 0.7863642711635499 0.6177630881150306
2 20.47887640474769 7.476808532914181 25.688657339145397 1.8038219538750186 0.6012739846250031 0.6012739846250031 0.0 -0.0 0.8896314041555925 0.4566792799549252
3 13.554789650869422 21.65916415279253 53.46807517602862 1.821950665901553 0.6073168886338507 0.6073168886338507 0.0 0.0 0.631512325711268 0.7753658378305981
4 24.349522178604317 48.59530521617633 38.90187824473769 1.8402615745129765 0.6134205248376543 0.6134205248376543 0.0 0.0 0.5765741652112841 0.8170448164029381
5 55.12618024536867 13.67582856060087 23.675370116432376 1.858756510815409 0.6195855036051305 0.6195855036051305 0.0 -0.0 0.8873914294477543 0.4610167577677315
6 23.648317419214678 8.747883519006255 19.376457417278246 1.8774373243178666 0.6258124414392936 0.6258124414392936 0.0 0.0 0.643710445538684 0.7652691437033046
7 46.40419090505017 1.9615341058552083 23.399075395838278 1.8963058831173283 0.6321019610391099 0.6321019610391099 0.0 -0.0 0.7603958793842515 0.6494598575858641
8 48.69235375011892 36.02848210764581 7.177846514777914 1.9153640740853555 0.6384546913617807 0.6384546913617807 0.0 -0.0 0.7854601334426244 0.6189122545016335
9 48.587967560553835 60.50788055418441 55.851887207963834 1.93461380305692 0.6448712676856414 0.6448712676856414 0.0 -0.0 0.7176002965020949 0.6964551776389529
10 22.356870294912696 60.33756477487421 14.231109510137342 1.954056995020965 0.651352331673659 0.651352331673659 0.0 0.0 0.38534345666417513 0.9227732226317065
11 24.029108591848487 6.492394558863447 4.315421413473079 1.9736955943129264 0.6578985314376411 0.6578985314376411 0.0 0.0 0.49983922045674145 0.866118209999765
12 9.247452043882344 60.505179020831804 20.10343536815473 1.9935315648090592 0.6645105216030139 0.6645105216030139 0.0 0.0 0.2746680171135514 0.9615391205639581
13 19.249820692203443 54.190834223977085 37.207777363585116 2.0135668901229438 0.6711889633743144 0.6711889633743144 0.0 -0.0 0.7886508549344257 0.614841303924191
14 25.81209164427356 38.3221360493065 13.049230881704403 2.033803573803835 0.6779345246012735 0.6779345246012735 0.0 -0.0 0.7750680292508737 0.6318777967559605
15 20.364179888139745 58.41662445431583 24.787883821865233 2.0542436395369403 0.6847478798456434 0.6847478798456434 0.0 0.0 0.6340811782098568 0.7732664866913604
16 21.47286509366197 32.87849401587953 50.144617317156204 2.074889131345871 0.6916297104486229 0.6916297104486229 0.0 -0.0 0.7629176367612683 0.6464956918020424
17 32.269238009390705 31.23317767939173 38.568219912497426 2.095742113797012 0.6985807045990065 0.6985807045990065 0.0 0.0 0.6579222258448839 0.7530858813836
18 49.198960717867266 40.65857137845066 3.455730115471948 2.1168046722060034 0.7056015574020036 0.7056015574020036 0.0 0.0 0.506211649243881 0.8624092799650234
19 20.77686752247342 18.84785696554309 41.21593840722116 2.138078912846225 0.7126929709487402 0.7126929709487402 0.0 0.0 0.6434542777811493 0.7654845474633303
20 20.01321625666753 54.80789701587059 11.14365864649208 2.1595669631594636 0.7198556543864922 0.7198556543864922 0.0 -0.0 0.7861857262579329 0.6179902942832407
21 42.63559179348518 20.248900013738655 44.04783990001893 2.1812709719686754 0.7270903239895525 0.7270903239895525 0.0 0.0 0.6069811502172251 0.7947162281474907
22 55.33350278933081 54.95507892174433 54.99747721660233 2.203193109692785 0.7343977032309332 0.7343977032309332 0.0 -0.0 0.8910647246123514 0.45387625687131333
23 41.44429912205043 7.727939556856883 46.41676999328267 2.2253355685639042 0.7417785228546305 0.7417785228546305 0.0 -0.0 0.7582829367961579 0.651925599868416
24 23.09964125232137 11.299164573614968 51.82456155524834 2.247700562846314 0.7492335209487727 0.7492335209487727 0.0 0.0 0.5255054740936084 0.8507902189715464
25 11.923198727866989 4.3162275150089755 11.839450240031208 2.2702903290580942 0.7567634430193624 0.7567634430193624 0.0 0.0 0.6637035342538496 0.7479957343587923
26 55.97435703981852 17.605767947371213 53.21953812099911 2.2931071261946947 0.7643690420649009 0.7643690420649009 0.0 0.0 0.5361151400853296 0.8441448670526212
27 59.183488018933026 26.19828825659107 19.562997948836255 2.316153235954848 0.7720510786516198 0.7720510786516198 0.0 -0.0 0.7297620279401082 0.6837012378054764
28 7.0188393306875385 55.86427798741971 35.919869051647474 2.33943096296873 0.7798103209895727 0.7798103209895727 0.0 -0.0 0.9828164757017253 0.18458541407500267
29 43.88541053995702 33.9522914626852 26.508163313882545 2.3629426350284466 0.7876475450094796 0.7876475450094796 0.0 -0.0 0.8740853421614372 0.4857723897243679
30 17.275596611631403 7.0315860446031255 27.9274793708205 2.386690603320784 0.7955635344402586 0.7955635344402586 0.0 -0.0 0.8433777540022546 0.5373210995802349
31 46.57221694872744 51.76490133766693 52.707357918150656 2.410677242662374 0.8035590808874558 0.8035590808874558 0.0 0.0 0.6952778540174372 0.7187410560924617
32 8.980807480129052 51.04173342570741 46.28369595760787 2.434904951737126 0.8116349839123723 0.8116349839123723 0.0 0.0 0.6353234605105568 0.7722461398575527
33 32.75434214914249 10.371679873216682 22.794433566502097 2.4593761533361547 0.819792051112048 0.819792051112048 0.0 0.0 0.6411270229476993 0.7674347792784871
34 1.1589451086002391 23.96550976297899 47.24872871167792 2.484093294599998 0.8280310981999972 0.8280310981999972 0.0 -0.0 0.7453722743584635 0.6666484625480594
35 34.49079080310283 38.64470531560734 44.19549853147539 2.509058847263389 0.8363529490877998 0.8363529490877998 0.0 -0.0 0.7109313362059317 0.7032614273514853
36 26.105718965148753 27.81445482830355 20.401201673381877 2.5342753079023934 0.8447584359674619 0.8447584359674619 0.0 -0.0 0.739632735620696 0.6730107104632479
37 7.773790712718871 49.12478785046554 8.353108574413273 2.559745198184101 0.8532483993946989 0.8532483993946989 0.0 0.0 0.5163603530767541 0.8563714064414165
38 15.358277419136183 60.87778450518622 12.827565975457436 2.585471065118737 0.8618236883729088 0.8618236883729088 0.0 0.0 0.5145463711011363 0.8574625542766586
39 12.53854984528605 23.914514918949866 11.812546437524222 2.6114554813144624 0.8704851604381543 0.8704851604381543 0.0 0.0 0.5880831456971182 0.8088004783300898
40 54.32152921496639 38.907575144800866 18.642477947705583 2.6377010452345484 0.8792336817448456 0.8792336817448456 0.0 -0.0 0.8608342640850161 0.5088854191045453
41 46.97935403129158 11.67232782780555 60.83168586777399 2.664210381457235 0.8880701271524145 0.8880701271524145 0.0 0.0 0.5813114541301716 0.8136811373609846
42 2.6049302870371647 6.116797111417183 35.23904955681224 2.690986140938258 0.8969953803127527 0.8969953803127527 0.0 0.0 0.6858728758951139 0.7277213739552836
43 52.830147937984066 2.1726145848534975 29.500212472123106 2.71803100127586 0.9060103337586276 0.9060103337586276 0.0 -0.0 0.8971229945165649 0.4417808650333688
44 40.88591874586493 20.467124686295875 39.69991602110692 2.7453476669786485 0.9151158889928812 0.9151158889928812 0.0 -0.0 0.7662793896249596 0.6425075073771507
45 28.215187298718117 21.93982389557784 23.029877500182522 2.7729388697358917 0.9243129565786297 0.9243129565786297 0.0 -0.0 0.8021859139948743 0.5970743332184094
46 13.31254987828116 43.12087297182075 14.470220548346678 2.800807368690937 0.9336024562303127 0.9336024562303127 0.0 0.0 0.6689296931602822 0.7433256793683982
47 53.12834494178398 17.909773768600342 21.025794600785318 2.8289559507168374 0.9429853169056126 0.9429853169056126 0.0 -0.0 0.8121614142020023 0.5834328044268712
48 48.82286407747337 7.233688080795567 24.007118972011234 2.8573874306953058 0.9524624768984362 0.9524624768984362 0.0 0.0 0.43861391052531945 0.8986756019241242
49 20.453093039741006 30.802636985668922 2.552917182050688 2.88610465179798 0.9620348839326571 0.9620348839326571 0.0 -0.0 0.7611420715427216 0.6485851886434459
50 30.10504148071973 32.02935353366366 52.355347214359924 2.9151104857709393 0.9717034952569884 0.9717034952569884 0.0 0.0 0.5689873473401131 0.8223462765568174
51 6.570435845866946 28.667671591070032 41.65766829968541 2.9444078332217676 0.9814692777405823 0.9814692777405823 0.0 -0.0 0.9816329176571261 0.1907794930592849
52 31.61838364832668 1.7452132068072677 26.977475238075225 2.9739996239095627 0.9913332079698612 0.9913332079698612 0.0 -0.0 0.8312938914163103 0.5558331279205367
53 20.469816686271763 41.564876358464964 6.722068109219887 3.003888817038105 1.0012962723460341 1.0012962723460341 0.0 0.0 0.4937832216878833 0.8695850332081013
54 27.857063349558057 45.764760372089924 36.57730899877232 3.034078401551602 1.0113594671838644 1.0113594671838644 0.0 -0.0 0.7425013715714329 0.6698445440656666
55 19.93541314283619 53.00964418117601 6.257757872795192 3.034078401551602 1.0113594671838644 1.0113594671838644 0.0 -0.0 0.899222239431846 0.4374921303419936
56 45.36321307962622 15.627877838915179 34.541828766080094 3.06457139643366 1.0215237988112265 1.0215237988112265 0.0 0.0 0.591041689671776 0.8066410112744902
57 50.87617959199891 4.77615688868978 46.191905470584395 3.06457139643366 1.0215237988112265 1.0215237988112265 0.0 0.0 0.6906372933410847 0.7232013060320761
58 45.712486691869614 53.02701303137965 27.338470458286977 3.095370851009184 1.0317902836697244 1.0317902836697244 0.0 -0.0 0.9778925487455288 0.20910801779935065
59 30.96859984754193 50.59750814008311 37.08900597728212 3.095370851009184 1.0317902836697244 1.0317902836697244 0.0 -0.0 0.8334397726994561 0.5526103014626843
60 34.48506307597195 28.414741312095874 10.60880309749562 3.126479845249291 1.0421599484164303 1.0421599484164303 0.0 -0.0 0.8251393648538317 0.5649292243888745
61 14.400911742058817 26.61552480021154 34.424250295201475 3.126479845249291 1.0421599484164303 1.0421599484164303 0.0 -0.0 0.8342848482439009 0.5513336485202505
62 3.1017734201818836 41.41336297484692 23.46178801717691 3.1579014900793134 1.0526338300264402 1.0526338300264402 0.0 0.0 0.6993489688984815 0.7147803996337831
63 34.8493742210481 47.95255992490271 2.0591877802870155 3.1579014900793134 1.0526338300264402 1.0526338300264402 0.0 0.0 0.6638694557235675 0.747848477806363
64 28.28319073159964 0.9012972782921487 52.86906720801227 3.189638927689989 1.0632129758966544 1.0632129758966544 0.0 0.0 0.5469534661185369 0.8371630103515794
65 18.442694039948144 5.592710636427386 12.656905569070062 3.189638927689989 1.0632129758966544 1.0632129758966544 0.0 0.0 0.534266604389083 0.8453160328744268
66 42.824779852900804 15.034008224601733 19.851630575681344 3.221695331851433 1.073898443950477 1.073898443950477 0.0 0.0 0.49259387534365895 0.8702593142126752
67 59.96384007967287 57.180367058157096 16.073485186773592 3.221695331851433 1.073898443950477 1.073898443950477 0.0 -0.0 0.7991221049958454 0.6011687461162707
68 29.236440604527452 13.52156022839795 3.7535018917615046 3.254073908230797 1.084691302743601 1.084691302743601 0.0 -0.0 0.8113628171424923 0.5845428803420658
69 45.5104527948204 55.891730688854636 53.67255112106982 3.254073908230797 1.084691302743601 1.084691302743601 0.0 0.0 0.69974083585519 0.7143967823532522
70 35.367055070445204 55.98398129689093 24.93742607395015 3.286777894712767 1.095592631570917 1.095592631570917 0.0 -0.0 0.9226100212719841 0.3857340387475665
71 38.721871178882594 13.936000702180221 34.14064177299533 3.286777894712767 1.095592631570917 1.095592631570917 0.0 -0.0 0.8908476943010929 0.4543020862360491
72 60.695263137450205 45.948048076178594 7.301127878683005 3.3198105617231928 1.1066035205743894 1.1066035205743894 0.0 -0.0 0.9180976465577227 0.39635427509384946
73 1.5479074762819347 3.9615303970587084 44.226608743071864 3.3198105617231928 1.1066035205743894 1.1066035205743894 0.0 0.0 0.6852526383261238 0.7283054453092375
74 10.78095787448526 32.141762660613054 15.434759909667509 3.3531752125562835 1.1177250708520978 1.1177250708520978 0.0 0.0 0.6622208999947843 0.7493086677799063
75 53.31213262681898 13.314404050711264 28.606954696859663 3.3531752125562835 1.1177250708520978 1.1177250708520978 0.0 0.0 0.6669694181073614 0.7450850926636016
76 2.221565782678441 21.98058818865427 13.692266750484018 3.386875183704952 1.1289583945683215 1.1289583945683215 0.0 0.0 0.4849872773235938 0.8745212066235144
77 12.58192767248813 10.767116138600251 3.517752298469265 3.386875183704952 1.1289583945683215 1.1289583945683215 0.0 -0.0 0.724549744492829 0.6892225096116464
78 5.983702237065382 6.53638152470668 4.601599743024018 3.4209138451944123 1.1403046150648042 1.1403046150648042 0.0 0.0 0.646327957303847 0.7630597431442944
79 59.17479082600722 20.549590236135163 19.157645327913883 3.4209138451944123 1.1403046150648042 1.1403046150648042 0.0 0.0 0.4210348644808628 0.9070444547493698
80 57.58063015364282 8.015461299869374 19.74708571196308 3.455294600919158 1.1517648669730534 1.1517648669730534 0.0 0.0 0.5786941501693628 0.8155446527074768
81 10.382657369974472 12.022968117722096 47.86912073431954 3.455294600919158 1.1517648669730534 1.1517648669730534 0.0 0.0 0.683142879342022 0.730284743373632
82 19.12816051480265 58.46763792513173 0.33261562179930143 3.490020888983412 1.1633402963278014 1.1633402963278014 0.0 0.0 0.3480344086077516 0.937481760049257
83 24.896242323316223 4.969158270766664 56.38702360724383 3.490020888983412 1.1633402963278014 1.1633402963278014 0.0 -0.0 0.8280938516825816 0.560589486884571
84 30.67009213011327 38.557097271108745 23.89156162837829 3.5250961820449547 1.1750320606816522 1.1750320606816522 0.0 -0.0 0.8521868438699086 0.5232375972109076
85 10.623086227916648 34.519522225310304 25.9340968596298 3.5250961820449547 1.1750320606816522 1.1750320606816522 0.0 0.0 0.2683204071818837 0.9633297250109892
86 12.35025527024035 23.735965766223195 0.41252967758819803 3.560523987662244 1.1868413292207567 1.1868413292207567 0.0 0.0 0.5717525694490604 0.8204261083902665
87 21.79633173593795 7.8770011024687365 39.384832868825946 3.560523987662244 1.1868413292207567 1.1868413292207567 0.0 -0.0 0.7407334016199733 0.6717990977401677
88 17.577941321054915 26.661226040530003 55.754885151077396 3.596307848645439 1.1987692828818106 1.1987692828818106 0.0 0.0 0.6524446383875427 0.7578363898885753
89 10.649765661403388 30.945599788168405 27.72114544420354 3.596307848645439 1.1987692828818106 1.1987692828818106 0.0 0.0 0.3815125934194192 0.9243636411404275
90 25.457421102492095 56.36784870227869 48.63411911710049 3.6324513434104273 1.2108171144701445 1.2108171144701445 0.0 -0.0 0.7664413141092511 0.642314340511314
91 28.039934749079197 10.253496542745566 39.28865031231782 3.6324513434104273 1.2108171144701445 1.2108171144701445 0.0 -0.0 0.7164030651197486 0.6976866404676452
92 59.10363582939514 37.565851051978896 38.369624547072505 3.6689580863368163 1.2229860287789365 1.2229860287789365 0.0 0.0 0.3159382626609752 0.9487797500931208
93 17.584561714246753 42.88964380479561 36.39650293613998 3.6689580863368163 1.2229860287789365 1.2229860287789365 0.0 -0.0 0.807675111463051 0.5896277760783901
94 45.040745347818145 12.55884404022379 51.300409988234094 3.7058317281293287 1.2352772427097742 1.2352772427097742 0.0 0.0 0.5856043209472178 0.8105970511221638
95 32.438061211031105 9.746319621422373 52.18358063766264 3.7058317281293287 1.2352772427097742 1.2352772427097742 0.0 -0.0 0.8283891439806925 0.5601530381377355
96 35.48482195149571 15.746024311087272 43.79207697203181 3.7430759561828095 1.2476919853942767 1.2476919853942767 0.0 0.0 0.6380161188650698 0.7700230074928626
97 19.254183191906584 10.865102866223134 21.403386539052658 3.7430759561828095 1.2476919853942767 1.2476919853942767 0.0 0.0 0.5652655734899162 0.8249089837231233
98 24.73040759241037 17.130653168907102 37.41080935997348 3.780694494951177 1.2602314983170675 1.2602314983170675 0.0 -0.0 0.9884337224668884 0.15165347437579585
99 50.80260683042842 32.87532731362224 7.479728573830386 3.780694494951177 1.2602314983170675 1.2602314983170675 0.0 0.0 0.644584962479319 0.7645326848117973
100 34.91390823588755 26.78742293536846 48.09717578830627 3.8186911063196676 1.2728970354398808 1.2728970354398808 0.0 -0.0 0.7665764345255346 0.6421530736748979
101 30.196782363681553 34.615689717884386 2.8278974410997226 3.8186911063196676 1.2728970354398808 1.2728970354398808 0.0 -0.0 0.7486465484609144 0.6629693397718779
102 42.798231985415356 50.897410625515896 8.07733358604389 3.8570695899809997 1.2856898633269982 1.2856898633269982 0.0 -0.0 0.764238184631255 0.644934102952793
103 32.886437080666155 33.66909192378161 20.594029800296724 3.8570695899809997 1.2856898633269982 1.2856898633269982 0.0 -0.0 0.7262700822056904 0.6874094614514261
104 51.83121275375176 45.67596362839299 35.624470606314944 3.8958337838155863 1.2986112612718517 1.2986112612718517 0.0 0.0 0.6864264585310771 0.7271992278794606
105 17.468041947940254 4.680091828913752 24.58479848558743 3.8958337838155863 1.2986112612718517 1.2986112612718517 0.0 -0.0 0.8498704758576332 0.5269916263713497
106 12.035740154106298 57.65744036580088 50.6248445888861 3.934987564275064 1.311662521425022 1.311662521425022 0.0 -0.0 0.793590538753224 0.6084521811953406
107 41.59152269245821 58.8233095319692 21.109197061168604 3.934987564275064 1.311662521425022 1.311662521425022 0.0 -0.0 0.8299364941277125 0.5578578812878792
108 59.167062339364534 59.71067817723827 7.3548568463857436 3.974534846770159 1.3248449489233778 1.3248449489233778 0.0 -0.0 0.7596155095013813 0.650372414640225
109 22.717111311120533 58.989730393078524 35.52323659222063 3.974534846770159 1.3248449489233778 1.3248449489233778 0.0 -0.0 0.746179639226726 0.6657446552571586
110 28.134355303610523 58.72959398572596 43.77483205290924 4.014479586062039 1.33815986202067 1.33815986202067 0.0 -0.0 0.7434755474029917 0.6687631198068729
111 33.763428507628795 45.59692344665962 15.842256242266355 4.014479586062039 1.33815986202067 1.33815986202067 0.0 -0.0 0.7635489887521677 0.6457499065238353
112 46.85823365440208 56.85323641719905 41.34720551589961 4.054825776657915 1.3516085922193146 1.3516085922193146 0.0 -0.0 0.925703395166632 0.3782502137170186
113 12.7267402164361 17.160310204982828 29.07374188984294 4.054825776657915 1.3516085922193146 1.3516085922193146 0.0 -0.0 0.7476030998596368 0.6641457709571461
114 52.87670726962521 3.9839501511423463 35.97440819528822 4.095577453210523 1.3651924844035082 1.3651924844035082 0.0 -0.0 0.7095009508808979 0.7047044775642494
115 27.20481457432183 29.680368152796827 1.7270631861771197 4.095577453210523 1.3651924844035082 1.3651924844035082 0.0 0.0 0.692332939305712 0.7215782016887105
116 17.984891387954427 40.57985503992605 48.25658878010258 4.136738690921443 1.3789128969738125 1.3789128969738125 0.0 0.0 0.4838188577050026 0.8751681626573412
117 54.09022016132457 43.9671941375812 44.62868353024419 4.136738690921443 1.3789128969738125 1.3789128969738125 0.0 0.0 0.4072390243389004 0.9133216175343166
118 47.72486008236059 60.60977711679504 4.062454226243408 4.178313605948738 1.392771201982914 1.392771201982914 0.0 -0.0 0.9854258972554679 0.17010526452245991
119 22.455597996191003 51.00746342776262 1.3394237023628244 4.178313605948738 1.392771201982914 1.392771201982914 0.0 0.0 0.693566054094668 0.720393037589587
120 49.57492123965492 58.58142741934315 35.81382485102418 4.220306355818573 1.406768785272859 1.406768785272859 0.0 -0.0 0.8546373086497397 0.5192254526349123
121 0.2010912516095995 12.994155490287932 1.8884635787167898 4.220306355818573 1.406768785272859 1.406768785272859 0.0 -0.0 0.738138054050796 0.6746496966293722
122 45.65312819488836 41.76999766632457 44.06881075348301 4.2627211398409575 1.420907046613653 1.420907046613653 0.0 0.0 0.30497028615780525 0.9523618663936657
123 50.74684835712388 34.559008409385626 44.93683699342367 4.2627211398409575 1.420907046613653 1.420907046613653 0.0 -0.0 0.8240326158671573 0.5665423620411186
124 35.039377096902314 1.9083468827249104 4.816250904630818 4.3055621995295885 1.435187399843189 1.435187399843189 0.0 -0.0 0.7351480847541838 0.6779065521753388
125 33.385634722391394 51.294972910496504 39.12744841162505 4.3055621995295885 1.435187399843189 1.435187399843189 0.0 0.0 0.6354145425399089 0.7721711980699606
126 18.490167553453805 23.581326463554838 35.53397389672 4.348833819026134 1.4496112730087014 1.4496112730087014 0.0 -0.0 0.9631928649301144 0.2688112812880415
127 59.481881630144215 35.96893493806815 45.67790898511751 4.348833819026134 1.4496112730087014 1.4496112730087014 0.0 0.0 0.6645731125154195 0.7472232451694524
128 18.749832566300686 48.27644633662997 48.00636788327678 4.392540325528586 1.4641801085095267 1.4641801085095267 0.0 -0.0 0.837305869343264 0.5467347447925007
129 57.39593908523467 23.618324963187554 49.10744322033753 4.392540325528586 1.4641801085095267 1.4641801085095267 0.0 0.0 0.6718759690179156 0.7406636768846148
130 27.527122364564043 39.60560747254388 11.272507562268233 4.436686089724112 1.4788953632413673 1.4788953632413673 0.0 -0.0 0.8172568989423515 0.5762735124323614
131 9.27005852039585 22.746793516110888 50.18952698736119 4.436686089724112 1.4788953632413673 1.4788953632413673 0.0 0.0 0.5650588956672867 0.8250505708302167
132 37.53617853537651 24.349755327351446 1.792615718087557 4.481275526225848 1.4937585087419416 1.4937585087419416 0.0 0.0 0.5632303093681869 0.8262999568008076
133 5.88490578211573 50.27008906804808 40.6532710983147 4.481275526225848 1.4937585087419416 1.4937585087419416 0.0 0.0 0.7047758212396541 0.7094300823872436
134 44.960762291335605 21.707214772314217 41.999180396744705 4.526313094014613 1.5087710313381946 1.5087710313381946 0.0 -0.0 0.7457546235329385 0.6662207152882933
135 5.025328684563101 50.554838425829224 1.032582287966292 4.526313094014613 1.5087710313381946 1.5087710313381946 0.0 0.0 0.5807371118896761 0.8140911539097067
136 18.186763202894817 49.88277287486113 60.21306984869577 4.571803296884718 1.5239344322949082 1.5239344322949082 0.0 -0.0 0.7765636880913803 0.6300387593933514
137 46.676391900861155 26.317024106079007 25.840900300776998 4.571803296884718 1.5239344322949082 1.5239344322949082 0.0 -0.0 0.9207785641385271 0.39008567754147583
138 41.13293053837926 40.323905370480176 9.805992147131185 4.617750683894327 1.5392502279647813 1.5392502279647813 0.0 0.0 0.5933031767685688 0.8049790931672228
139 54.424553193968414 7.553469583377126 7.9749207303988445 4.617750683894327 1.5392502279647813 1.5392502279647813 0.0 0.0 0.36293328461656904 0.9318151270061183
140 14.328527810466511 44.51714779824269 21.751007679294727 4.664159849820543 1.5547199499401747 1.5547199499401747 0.0 0.0 0.5657838974393875 0.8245535649054563
141 58.768999597765976 36.416101510928385 1.742163397721678 4.664159849820543 1.5547199499401747 1.5547199499401747 0.0 0.0 0.5898626798291705 0.8075035720941112
142 3.409217883457555 37.05724446394932 8.948482642569365 4.7110354356184745 1.5703451452061656 1.5703451452061656 0.0 0.0 0.494526605223718 0.8691624915548904
143 37.74729119628177 11.30746179298389 0.5314824986811791 4.7110354356184745 1.5703451452061656 1.5703451452061656 0.0 0.0 0.6621201748514545 0.7493976741721844
144 19.226605795837546 23.057526731474205 42.952083866536654 4.758382128885868 1.5861273762952968 1.5861273762952968 0.0 -0.0 0.8358120424685423 0.5490156916378287
145 59.85470263443018 49.875088777703375 17.38796875490758 4.758382128885868 1.5861273762952968 1.5861273762952968 0.0 -0.0 0.7380766977143534 0.6747168208152773
146 30.243589303410108 51.28890959996174 50.37158327023589 4.806204664331513 1.6020682214438382 1.6020682214438382 0.0 0.0 0.5600689403365469 0.8284460043179022
147 38.485901999019035 26.72872449150066 44.69796068797595 4.806204664331513 1.6020682214438382 1.6020682214438382 0.0 -0.0 0.8053653384335279 0.5927787712543771
148 11.50296600389913 43.23504226046191 49.44045061953441 4.854507824248752 1.6181692747495715 1.6181692747495715 0.0 -0.0 0.9475491048281723 0.31961022189430877
149 1.4612382481472597 31.5244917159783 25.17573382821527 4.854507824248752 1.6181692747495715 1.6181692747495715 0.0 -0.0 0.8855269061838191 0.46458809543994295
150 42.299301486980525 4.393947968914704 4.6515461618286595 4.903296438993858 1.634432146331288 1.634432146331288 0.0 -0.0 0.8997163709941051 0.43647502994466686
151 29.143733420600032 42.143455376813804 47.363617373936634 4.903296438993858 1.634432146331288 1.634432146331288 0.0 0.0 0.6949034215940625 0.7191030765174521
152 50.07657271732799 47.88240709860074 7.038370904145264 4.952575387468939 1.6508584624896363 1.6508584624896363 0.0 0.0 0.6496096252583186 0.7602679361723385
153 28.33877713868927 58.93304267153152 5.844294873250187 4.952575387468939 1.6508584624896363 1.6508584624896363 0.0 0.0 0.6980264017745981 0.7160720232110785
154 50.354906050116895 16.962714254402865 3.6159501895123713 5.002349597609926 1.6674498658699808 1.6674498658699808 0.0 -0.0 0.9126309719920443 0.4087844284716046
155 12.77380004899273 44.226462677935444 3.9150051380579995 5.002349597609926 1.6674498658699808 1.6674498658699808 0.0 0.0 0.34897032679986184 0.9371337743423815
156 18.226962761291134 35.66465608586645 54.14116027468251 5.052624046879312 1.684208015626449 1.684208015626449 0.0 0.0 0.6995675014656925 0.7145665195718649
157 23.980204004296453 42.69051985833658 44.88831090165712 5.052624046879312 1.684208015626449 1.684208015626449 0.0 0.0 0.63565327495599 0.7719746848425306
158 44.81950172547355 58.96536013536693 36.949521262474114 5.103403762763942 1.7011345875879769 1.7011345875879769 0.0 -0.0 0.7426985308561326 0.6696259345814963
159 6.8606367239343795 1.6064088559478904 14.816952620760716 5.103403762763942 1.7011345875879769 1.7011345875879769 0.0 0.0 0.4891044501540252 0.8722252213961303
160 55.23216947071495 49.60556956809533 18.206643589921697 5.154693823277706 1.7182312744258992 1.7182312744258992 0.0 0.0 0.6466947184788655 0.7627489371290798
161 32.080704342546106 17.50157394776072 37.728947024431285 5.154693823277706 1.7182312744258992 1.7182312744258992 0.0 0.0 0.6377575578887067 0.7702371695496348
162 13.397997168461192 6.339849223869729 21.829012120069393 5.2064993574693705 1.7354997858231267 1.7354997858231267 0.0 0.0 0.6701572236966805 0.7422191694689361
163 36.349851718729795 42.69700483022252 28.473230362291133 5.2064993574693705 1.7354997858231267 1.7354997858231267 0.0 -0.0 0.7797338016261434 0.6261111711203069
164 58.20321026752574 38.259354906260306 34.28796556885947 5.258825545935536 1.7529418486451782 1.7529418486451782 0.0 0.0 0.6966086930688543 0.7174512727293072
165 27.160814187978357 28.51280139681361 46.62104990873584 5.258825545935536 1.7529418486451782 1.7529418486451782 0.0 -0.0 0.8994069955971553 0.43711217813153935
9_T 48.587967560553835 -0.3921194458155881 55.851887207963834 1.93461380305692 0.6448712676856414 0.6448712676856414 0.0 -0.0 0.7176002965020949 0.6964551776389529
10_T 22.356870294912696 -0.5624352251257889 14.231109510137342 1.954056995020965 0.651352331673659 0.651352331673659 0.0 0.0 0.38534345666417513 0.9227732226317065
12_T 9.247452043882344 -0.3948209791681947 20.10343536815473 1.9935315648090592 0.6645105216030139 0.6645105216030139 0.0 0.0 0.2746680171135514 0.9615391205639581
38_T 15.358277419136183 -0.02221549481377849 12.827565975457436 2.585471065118737 0.8618236883729088 0.8618236883729088 0.0 0.0 0.5145463711011363 0.8574625542766586
41_F 46.97935403129158 11.67232782780555 -0.06831413222600702 2.664210381457235 0.8880701271524145 0.8880701271524145 0.0 0.0 0.5813114541301716 0.8136811373609846
43_B 52.830147937984066 63.0726145848535 29.500212472123106 2.71803100127586 0.9060103337586276 0.9060103337586276 0.0 -0.0 0.8971229945165649 0.4417808650333688
52_B 31.61838364832668 62.64521320680726 26.977475238075225 2.9739996239095627 0.9913332079698612 0.9913332079698612 0.0 -0.0 0.8312938914163103 0.5558331279205367
64_B 28.28319073159964 61.80129727829215 52.86906720801227 3.189638927689989 1.0632129758966544 1.0632129758966544 0.0 0.0 0.5469534661185369 0.8371630103515794
67_L -0.9361599203271282 57.180367058157096 16.073485186773592 3.221695331851433 1.073898443950477 1.073898443950477 0.0 -0.0 0.7991221049958454 0.6011687461162707
72_L -0.20473686254979384 45.948048076178594 7.301127878683005 3.3198105617231928 1.1066035205743894 1.1066035205743894 0.0 -0.0 0.9180976465577227 0.39635427509384946
79_L -1.7252091739927806 20.549590236135163 19.157645327913883 3.4209138451944123 1.1403046150648042 1.1403046150648042 0.0 0.0 0.4210348644808628 0.9070444547493698
82_Ba 19.12816051480265 58.46763792513173 61.2326156217993 3.490020888983412 1.1633402963278014 1.1633402963278014 0.0 0.0 0.3480344086077516 0.937481760049257
86_Ba 12.35025527024035 23.735965766223195 61.312529677588195 3.560523987662244 1.1868413292207567 1.1868413292207567 0.0 0.0 0.5717525694490604 0.8204261083902665
92_L -1.7963641706048605 37.565851051978896 38.369624547072505 3.6689580863368163 1.2229860287789365 1.2229860287789365 0.0 0.0 0.3159382626609752 0.9487797500931208
106_T 12.035740154106298 -3.242559634199118 50.6248445888861 3.934987564275064 1.311662521425022 1.311662521425022 0.0 -0.0 0.793590538753224 0.6084521811953406
107_T 41.59152269245821 -2.0766904680307974 21.109197061168604 3.934987564275064 1.311662521425022 1.311662521425022 0.0 -0.0 0.8299364941277125 0.5578578812878792
108_T 59.167062339364534 -1.1893218227617268 7.3548568463857436 3.974534846770159 1.3248449489233778 1.3248449489233778 0.0 -0.0 0.7596155095013813 0.650372414640225
109_T 22.717111311120533 -1.9102696069214744 35.52323659222063 3.974534846770159 1.3248449489233778 1.3248449489233778 0.0 -0.0 0.746179639226726 0.6657446552571586
110_T 28.134355303610523 -2.170406014274036 43.77483205290924 4.014479586062039 1.33815986202067 1.33815986202067 0.0 -0.0 0.7434755474029917 0.6687631198068729