ITEM: TIMESTEP
236
ITEM: NUMBER OF ATOMS
188
ITEM: BOX BOUNDS ff ff ff
0 60.9
60.9 0
60.9 0
ITEM: ATOMS id x y z AsphericalShapeX AsphericalShapeY AsphericalShapeZ OrientationX OrientationY OrientationZ OrientationW
1 41.32143905769685 55.98104804440176 20.939150046411978 1.6729330010065278 0.5576443336688442 0.5576443336688442 0.0 -0.0 0.7863642711635499 0.6177630881150306
2 21.1590700174909 6.832301089869735 25.85880954984312 1.6897462571872697 0.5632487523957547 0.5632487523957547 0.0 -0.0 0.8896314041555925 0.4566792799549252
3 13.059167720639435 20.15358063480983 52.59328044430107 1.70672848940185 0.5689094964672836 0.5689094964672836 0.0 0.0 0.631512325711268 0.7753658378305981
4 25.594837434173698 47.004273780788665 37.66732753869046 1.723881395887649 0.5746271319625458 0.5746271319625458 0.0 0.0 0.5765741652112841 0.8170448164029381
5 56.96089745774076 14.922713228181088 25.52872076804381 1.741206691949612 0.5804022306498655 0.5804022306498655 0.0 -0.0 0.8873914294477543 0.4610167577677315
6 24.350979333386604 10.636785745181161 19.625293650539916 1.7587061101317574 0.5862353700439227 0.5862353700439227 0.0 0.0 0.643710445538684 0.7652691437033046
7 47.56967865439603 2.19263981179418 22.78550602870177 1.7763814003905407 0.5921271334635134 0.5921271334635134 0.0 -0.0 0.7603958793842515 0.6494598575858641
8 49.083864386791284 36.340863800493146 6.145784030744397 1.79423433026968 0.5980781100898894 0.5980781100898894 0.0 -0.0 0.7854601334426244 0.6189122545016335
9 48.71275080194792 60.74439813144609 56.55555480928182 1.812266685077035 0.6040888950256798 0.6040888950256798 0.0 -0.0 0.7176002965020949 0.6964551776389529
10 24.650398672759295 59.779570919902 14.450961827688444 1.8304802680631183 0.6101600893543756 0.6101600893543756 0.0 0.0 0.38534345666417513 0.9227732226317065
11 23.405854472692372 4.302659506674667 4.611136914085538 1.848876900601437 0.6162923002004785 0.6162923002004785 0.0 0.0 0.49983922045674145 0.866118209999765
12 10.368279647737449 59.63003788496013 19.601925751606682 1.8674584223705415 0.6224861407901753 0.6224861407901753 0.0 0.0 0.2746680171135514 0.9615391205639581
13 20.43662887856469 54.033058140644165 39.06810104778058 1.8862266915380934 0.6287422305126977 0.6287422305126977 0.0 -0.0 0.7886508549344257 0.614841303924191
14 24.572245074351837 40.33839523512672 14.964863254669154 1.905183584946675 0.6350611949822212 0.6350611949822212 0.0 -0.0 0.7750680292508737 0.6318777967559605
15 19.819302996504916 59.76435302146043 24.749675522035414 1.9243309983014032 0.6414436661004645 0.6414436661004645 0.0 0.0 0.6340811782098568 0.7732664866913604
16 22.192817335859463 32.57109574629376 49.49502356194638 1.9436708463595687 0.6478902821198562 0.6478902821198562 0.0 -0.0 0.7629176367612683 0.6464956918020424
17 32.873667927823334 33.696650412038395 39.08526262500837 1.9632050631221005 0.6544016877073702 0.6544016877073702 0.0 0.0 0.6579222258448839 0.7530858813836
18 50.98101765315661 41.41205259692944 2.157323138385682 1.9829356020269657 0.660978534008992 0.660978534008992 0.0 0.0 0.506211649243881 0.8624092799650234
19 19.793271202389388 17.55526417503322 40.834343790291456 2.0028644361444843 0.6676214787148278 0.6676214787148278 0.0 0.0 0.6434542777811493 0.7654845474633303
20 18.967419465155782 54.36607778303391 8.803536497125785 2.0229935583746728 0.6743311861248953 0.6743311861248953 0.0 -0.0 0.7861857262579329 0.6179902942832407
21 40.91550830398031 21.92364313009785 44.21084988820799 2.043324981646545 0.6811083272155103 0.6811083272155103 0.0 0.0 0.6069811502172251 0.7947162281474907
22 53.130976751982374 55.98579910051561 56.87495634335723 2.063860739119329 0.6879535797064473 0.6879535797064473 0.0 -0.0 0.8910647246123514 0.45387625687131333
23 40.80947037500106 5.140570433383148 45.873723450838995 2.084602884385949 0.6948676281286461 0.6948676281286461 0.0 -0.0 0.7582829367961579 0.651925599868416
24 23.099499014427472 9.148846818989961 51.20632323083963 2.1055534916781675 0.7018511638927233 0.7018511638927233 0.0 0.0 0.5255054740936084 0.8507902189715464
25 10.816250408641864 5.414933947984778 13.711262797083645 2.12671465607418 0.7089048853580588 0.7089048853580588 0.0 0.0 0.6637035342538496 0.7479957343587923
26 55.830566822391226 19.020370627940245 55.40574000161461 2.1480884937080766 0.7160294979026937 0.7160294979026937 0.0 0.0 0.5361151400853296 0.8441448670526212
27 59.013504729457345 27.530314664177695 17.751942201205964 2.169677141981422 0.7232257139938093 0.7232257139938093 0.0 -0.0 0.7297620279401082 0.6837012378054764
28 5.108595878195811 58.29402115273393 35.65947077411686 2.1914827597770343 0.7304942532590074 0.7304942532590074 0.0 -0.0 0.9828164757017253 0.18458541407500267
29 43.72147303969227 34.74643330626504 26.056750641571664 2.2135075276748712 0.7378358425582873 0.7378358425582873 0.0 -0.0 0.8740853421614372 0.4857723897243679
30 16.99861332582687 8.15487963744085 28.818749885319626 2.235753648170065 0.745251216056685 0.745251216056685 0.0 -0.0 0.8433777540022546 0.5373210995802349
31 44.70879115876759 51.017176662855135 51.42522489586194 2.258223345893214 0.7527411152977352 0.7527411152977352 0.0 0.0 0.6952778540174372 0.7187410560924617
32 10.177428938473547 51.85148508752632 47.1238561375544 2.2809188678328045 0.7603062892775979 0.7603062892775979 0.0 0.0 0.6353234605105568 0.7722461398575527
33 33.920685779586464 8.728726287991623 22.5720136607241 2.3038424835599574 0.7679474945199822 0.7679474945199822 0.0 0.0 0.6411270229476993 0.7674347792784871
34 1.888416666545357 23.582091746446928 49.77302867939749 2.326996485455336 0.7756654951517761 0.7756654951517761 0.0 -0.0 0.7453722743584635 0.6666484625480594
35 33.83793551631364 37.24719213233517 44.78055429175544 2.3503831889384292 0.7834610629794799 0.7834610629794799 0.0 -0.0 0.7109313362059317 0.7032614273514853
36 25.16192708655865 30.350762820307406 21.85116923852837 2.3740049326990826 0.7913349775663577 0.7913349775663577 0.0 -0.0 0.739632735620696 0.6730107104632479
37 6.467035095967397 48.68216087934255 6.040414107775565 2.3978640789313537 0.7992880263104492 0.7992880263104492 0.0 0.0 0.5163603530767541 0.8563714064414165
38 13.641770633954248 2.4615557208876453 14.857541275202681 2.4219630135697283 0.8073210045232392 0.8073210045232392 0.0 0.0 0.5145463711011363 0.8574625542766586
39 12.557997232884256 23.092551563550447 8.37740035576309 2.446304146527777 0.8154347155092592 0.8154347155092592 0.0 0.0 0.5880831456971182 0.8088004783300898
40 53.99948129573714 41.65144072827233 19.26295028513881 2.4708899119390804 0.8236299706463575 0.8236299706463575 0.0 -0.0 0.8608342640850161 0.5088854191045453
41 49.712272561790215 14.417437099446051 59.200520647064174 2.495722768400651 0.8319075894668859 0.8319075894668859 0.0 0.0 0.5813114541301716 0.8136811373609846
42 0.2788536298614463 7.535403398798804 34.318762731418936 2.5208051992188425 0.8402683997396142 0.8402683997396142 0.0 0.0 0.6858728758951139 0.7277213739552836
43 53.188653703214634 5.7813325444259895 28.88743472921494 2.5461397126576264 0.8487132375525479 0.8487132375525479 0.0 -0.0 0.8971229945165649 0.4417808650333688
44 39.13280843687866 22.622008325328835 38.52452170917902 2.5717288421894824 0.8572429473964931 0.8572429473964931 0.0 -0.0 0.7662793896249596 0.6425075073771507
45 29.971527328671154 19.5038150177627 21.19841904051657 2.597575146748642 0.8658583822495465 0.8658583822495465 0.0 -0.0 0.8021859139948743 0.5970743332184094
46 11.597608742339261 44.964339007754695 15.191076111207341 2.6236812109871623 0.8745604036623877 0.8745604036623877 0.0 0.0 0.6689296931602822 0.7433256793683982
47 51.2864370672722 15.978637623869796 22.298217487277824 2.650049645533164 0.8833498818443881 0.8833498818443881 0.0 -0.0 0.8121614142020023 0.5834328044268712
48 46.836815032835844 9.804905974295828 24.799565392568617 2.676683087252124 0.8922276957507089 0.8922276957507089 0.0 0.0 0.43861391052531945 0.8986756019241242
49 20.270679333490577 32.33837033159385 2.2921464194924646 2.703584199510361 0.901194733170118 0.901194733170118 0.0 -0.0 0.7611420715427216 0.6485851886434459
50 29.787173610121922 34.543307231917204 52.32167355236372 2.7307556724415543 0.9102518908138583 0.9102518908138583 0.0 0.0 0.5689873473401131 0.8223462765568174
51 3.9404422310436407 29.62148962739964 41.77557421033808 2.758200223215646 0.9194000744052097 0.9194000744052097 0.0 -0.0 0.9816329176571261 0.1907794930592849
52 29.12685030937369 1.1915107386729138 29.576382553137147 2.785920596310539 0.9286401987701861 0.9286401987701861 0.0 -0.0 0.8312938914163103 0.5558331279205367
53 22.039667101697255 38.77754595988505 5.5278714384303775 2.8139195637866856 0.9379731879288937 0.9379731879288937 0.0 0.0 0.4937832216878833 0.8695850332081013
54 26.609849426427882 43.47372988619081 34.86673914073197 2.8421999255641506 0.9473999751880473 0.9473999751880473 0.0 -0.0 0.7425013715714329 0.6698445440656666
55 20.644270727675696 55.50013762971448 5.921426079517072 2.8421999255641506 0.9473999751880473 0.9473999751880473 0.0 -0.0 0.899222239431846 0.4374921303419936
56 44.2682621276583 17.28541759266174 36.729970423993414 2.8707645097026777 0.9569215032342324 0.9569215032342324 0.0 0.0 0.591041689671776 0.8066410112744902
57 50.39003506228365 5.836149434600838 45.5566352924992 2.8707645097026777 0.9569215032342324 0.9569215032342324 0.0 0.0 0.6906372933410847 0.7232013060320761
58 43.41619570719608 51.50708215924274 25.19150524370413 2.8996161726844942 0.9665387242281611 0.9665387242281611 0.0 -0.0 0.9778925487455288 0.20910801779935065
59 31.080353954675026 49.2664608922359 39.44756608281694 2.8996161726844942 0.9665387242281611 0.9665387242281611 0.0 -0.0 0.8334397726994561 0.5526103014626843
60 33.480100243989185 28.40980950711121 12.661567135106718 2.9287577996999286 0.9762525998999761 0.9762525998999761 0.0 -0.0 0.8251393648538317 0.5649292243888745
61 13.246585899502161 28.504763307079706 32.05303769515047 2.9287577996999286 0.9762525998999761 0.9762525998999761 0.0 -0.0 0.8342848482439009 0.5513336485202505
62 1.8628321582208929 44.51578888132915 21.429641737153233 2.958192304935958 0.9860641016453218 0.9860641016453218 0.0 0.0 0.6993489688984815 0.7147803996337831
63 34.504950025449894 46.89093324879237 3.8977477071488704 2.958192304935958 0.9860641016453218 0.9860641016453218 0.0 0.0 0.6638694557235675 0.747848477806363
64 27.91282851807448 2.6647295677853338 54.02603868697863 2.987922631867695 0.9959742106225564 0.9959742106225564 0.0 0.0 0.5469534661185369 0.8371630103515794
65 16.61553644685676 4.573971634674026 14.700558987147843 2.987922631867695 0.9959742106225564 0.9959742106225564 0.0 0.0 0.534266604389083 0.8453160328744268
66 44.71746431019568 18.286645346486683 19.830575948926953 3.017951753552528 1.005983917850842 1.005983917850842 0.0 0.0 0.49259387534365895 0.8702593142126752
67 58.845322070693506 56.49839780214186 15.898557827438173 3.017951753552528 1.005983917850842 1.005983917850842 0.0 -0.0 0.7991221049958454 0.6011687461162707
68 27.75863133931444 10.697461908961051 0.9612667760748108 3.0482826729276655 1.0160942243092215 1.0160942243092215 0.0 -0.0 0.8113628171424923 0.5845428803420658
69 45.51599395701573 55.726166134707626 56.42659608914838 3.0482826729276655 1.0160942243092215 1.0160942243092215 0.0 0.0 0.69974083585519 0.7143967823532522
70 32.16365068263816 56.762875847848306 24.89874260775153 3.078918423110377 1.0263061410367882 1.0263061410367882 0.0 -0.0 0.9226100212719841 0.3857340387475665
71 41.026790451132484 10.94951901713557 36.76500779292521 3.078918423110377 1.0263061410367882 1.0263061410367882 0.0 -0.0 0.8908476943010929 0.4543020862360491
72 59.52646871307572 49.10106099169653 7.656192142123686 3.1098620677011706 1.0366206892337153 1.0366206892337153 0.0 -0.0 0.9180976465577227 0.39635427509384946
73 3.4944706988754812 0.5540495309251318 45.38370673514382 3.1098620677011706 1.0366206892337153 1.0366206892337153 0.0 0.0 0.6852526383261238 0.7283054453092375
74 12.19597618964817 28.21958668909419 13.202270752660542 3.141116701090272 1.0470389003634273 1.0470389003634273 0.0 0.0 0.6622208999947843 0.7493086677799063
75 52.90946056029828 10.34938777388006 28.221222414700645 3.141116701090272 1.0470389003634273 1.0470389003634273 0.0 0.0 0.6669694181073614 0.7450850926636016
76 60.339453328503666 24.765206241896113 12.359911905123605 3.172685448767091 1.0575618162556988 1.0575618162556988 0.0 0.0 0.4849872773235938 0.8745212066235144
77 12.494345681854279 15.669891158835732 2.343846490702081 3.172685448767091 1.0575618162556988 1.0575618162556988 0.0 -0.0 0.724549744492829 0.6892225096116464
78 4.443779589383462 8.322036813182715 3.765643545448164 3.2045714676327104 1.0681904892109035 1.0681904892109035 0.0 0.0 0.646327957303847 0.7630597431442944
79 57.74208523656683 17.014996071787454 21.48634635386344 3.2045714676327104 1.0681904892109035 1.0681904892109035 0.0 0.0 0.4210348644808628 0.9070444547493698
80 58.87069492599644 4.901037886869561 19.57893166670496 3.236777946315575 1.0789259821051935 1.0789259821051935 0.0 0.0 0.5786941501693628 0.8155446527074768
81 11.3168915809673 14.8609531708726 49.51808563302136 3.236777946315575 1.0789259821051935 1.0789259821051935 0.0 0.0 0.683142879342022 0.730284743373632
82 15.999789086253166 58.0760605131801 59.510224620820445 3.2693081054903916 1.0897693684967946 1.0897693684967946 0.0 0.0 0.3480344086077516 0.937481760049257
83 24.460722369777304 5.5437464104744 56.078799438865 3.2693081054903916 1.0897693684967946 1.0897693684967946 0.0 -0.0 0.8280938516825816 0.560589486884571
84 27.491218142984945 35.636554494941464 27.5751117274498 3.302165198200214 1.1007217327334053 1.1007217327334053 0.0 -0.0 0.8521868438699086 0.5232375972109076
85 9.509791920711729 34.69845320271832 24.243508753349474 3.302165198200214 1.1007217327334053 1.1007217327334053 0.0 0.0 0.2683204071818837 0.9633297250109892
86 12.408798045556832 20.458784528851915 1.1972081651340116 3.3353525101816293 1.1117841700605506 1.1117841700605506 0.0 0.0 0.5717525694490604 0.8204261083902665
87 18.88142154545046 5.4884382626640305 40.09331669801977 3.3353525101816293 1.1117841700605506 1.1117841700605506 0.0 -0.0 0.7407334016199733 0.6717990977401677
88 19.10374720623006 22.601964157293388 57.313101103151816 3.368873360193555 1.1229577867311826 1.1229577867311826 0.0 0.0 0.6524446383875427 0.7578363898885753
89 11.991882430192454 29.7099234552611 29.21700286958241 3.368873360193555 1.1229577867311826 1.1229577867311826 0.0 0.0 0.3815125934194192 0.9243636411404275
90 25.337954621373655 53.90685350145653 48.73921773303099 3.4027311003488987 1.1342437001163028 1.1342437001163028 0.0 -0.0 0.7664413141092511 0.642314340511314
91 28.068746173695065 6.462475257888585 40.65756079662537 3.4027311003488987 1.1342437001163028 1.1342437001163028 0.0 -0.0 0.7164030651197486 0.6976866404676452
92 1.7682338489121499 39.3865862167889 38.227866666509755 3.4369291164499045 1.1456430388166325 1.1456430388166325 0.0 0.0 0.3159382626609752 0.9487797500931208
93 17.675494273131825 47.02954896844031 34.42356680625265 3.4369291164499045 1.1456430388166325 1.1456430388166325 0.0 -0.0 0.807675111463051 0.5896277760783901
94 43.134302216366976 13.173811896226937 52.22327942784392 3.4714708283266833 1.157156942775558 1.157156942775558 0.0 0.0 0.5856043209472178 0.8105970511221638
95 30.995467412959147 6.717803144890844 53.30405569574013 3.4714708283266833 1.157156942775558 1.157156942775558 0.0 -0.0 0.8283891439806925 0.5601530381377355
96 35.35844758846982 18.190088413790452 44.74503029194075 3.5063596901791554 1.1687865633930563 1.1687865633930563 0.0 0.0 0.6380161188650698 0.7700230074928626
97 19.438013450209162 6.082496601779235 19.44911473359795 3.5063596901791554 1.1687865633930563 1.1687865633930563 0.0 0.0 0.5652655734899162 0.8249089837231233
98 23.995937632651202 16.46637482245508 35.89026801326195 3.541599190922646 1.1805330636408893 1.1805330636408893 0.0 -0.0 0.9884337224668884 0.15165347437579585
99 50.7205587822143 34.571255347213615 7.429851392154518 3.541599190922646 1.1805330636408893 1.1805330636408893 0.0 0.0 0.644584962479319 0.7645326848117973
100 35.130645128128535 22.5957590141901 46.46282419940511 3.577192854536604 1.1923976181788607 1.1923976181788607 0.0 -0.0 0.7665764345255346 0.6421530736748979
101 32.970856011030634 34.890434753365305 3.6715978601601553 3.577192854536604 1.1923976181788607 1.1923976181788607 0.0 -0.0 0.7486465484609144 0.6629693397718779
102 42.52054448893161 55.477066780891306 7.20051399320192 3.613144240416984 1.2043814134723274 1.2043814134723274 0.0 -0.0 0.764238184631255 0.644934102952793
103 33.83692377116677 36.14667891734133 22.756368430980515 3.613144240416984 1.2043814134723274 1.2043814134723274 0.0 -0.0 0.7262700822056904 0.6874094614514261
104 54.253868675838376 44.699819942370254 33.929000913984154 3.6494569437323854 1.216485647910787 1.216485647910787 0.0 0.0 0.6864264585310771 0.7271992278794606
105 18.59120521126953 1.9019978432895137 24.66355785193598 3.6494569437323854 1.216485647910787 1.216485647910787 0.0 -0.0 0.8498704758576332 0.5269916263713497
106 11.291114091794011 56.1256554253802 49.46405545139748 3.68613459578336 1.2287115319277873 1.2287115319277873 0.0 -0.0 0.793590538753224 0.6084521811953406
107 38.62695263111861 2.099309540709962 21.67453593429676 3.68613459578336 1.2287115319277873 1.2287115319277873 0.0 -0.0 0.8299364941277125 0.5578578812878792
108 59.03792188624142 56.377599503351355 11.09118859107302 3.7231808643657205 1.2410602881219006 1.2410602881219006 0.0 -0.0 0.7596155095013813 0.650372414640225
109 26.022367421697794 56.505104335411964 31.711013920984755 3.7231808643657205 1.2410602881219006 1.2410602881219006 0.0 -0.0 0.746179639226726 0.6657446552571586
110 28.10786943089501 1.314618018772513 42.51641497254173 3.7605994541371652 1.253533151379048 1.253533151379048 0.0 -0.0 0.7434755474029917 0.6687631198068729
111 32.71136973895123 44.42148387113995 15.182804632421426 3.7605994541371652 1.253533151379048 1.253533151379048 0.0 -0.0 0.7635489887521677 0.6457499065238353
112 46.69301353748508 55.366352321353396 44.4459189549677 3.7983941069878506 1.2661313689959575 1.2661313689959575 0.0 -0.0 0.925703395166632 0.3782502137170186
113 11.859660346506788 20.384910518695243 30.98987757974719 3.7983941069878506 1.2661313689959575 1.2661313689959575 0.0 -0.0 0.7476030998596368 0.6641457709571461
114 55.07097457916749 8.29151411139501 35.46354581449225 3.8365686024146006 1.2788562008048674 1.2788562008048674 0.0 -0.0 0.7095009508808979 0.7047044775642494
115 29.660544228393945 25.610489004919852 4.770297801308232 3.8365686024146006 1.2788562008048674 1.2788562008048674 0.0 0.0 0.692332939305712 0.7215782016887105
116 13.365684740215064 41.76791825270387 47.002979437000725 3.8751267578987396 1.2917089192995805 1.2917089192995805 0.0 0.0 0.4838188577050026 0.8751681626573412
117 51.75060963343179 45.494731261819595 47.669180226082744 3.8751267578987396 1.2917089192995805 1.2917089192995805 0.0 0.0 0.4072390243389004 0.9133216175343166
118 47.355115851644214 2.5084203512138132 2.6324357228287494 3.914072429287948 1.3046908097626508 1.3046908097626508 0.0 -0.0 0.9854258972554679 0.17010526452245991
119 23.294221773434188 45.429129508316755 1.0631432115181014 3.914072429287948 1.3046908097626508 1.3046908097626508 0.0 0.0 0.693566054094668 0.720393037589587
120 51.77297861310931 56.000693822516574 38.190379895965435 3.953409511181825 1.3178031703939432 1.3178031703939432 0.0 -0.0 0.8546373086497397 0.5192254526349123
121 1.941103303439269 16.72559612262384 2.17853571277646 3.953409511181825 1.3178031703939432 1.3178031703939432 0.0 -0.0 0.738138054050796 0.6746496966293722
122 50.168926157345005 43.5864418946511 43.33892009701398 3.9931419373213775 1.3310473124404574 1.3310473124404574 0.0 0.0 0.30497028615780525 0.9523618663936657
123 51.965814698509675 33.92928239314375 47.51193494599298 3.9931419373213775 1.3310473124404574 1.3310473124404574 0.0 -0.0 0.8240326158671573 0.5665423620411186
124 33.375539798247274 6.951507819496612 6.962197225124283 4.033273680982261 1.3444245603274132 1.3444245603274132 0.0 -0.0 0.7351480847541838 0.6779065521753388
125 36.68608285418919 54.448042283574374 35.67491163896268 4.033273680982261 1.3444245603274132 1.3444245603274132 0.0 0.0 0.6354145425399089 0.7721711980699606
126 18.902050309402544 22.552736560449553 31.86516308591422 4.073808755372306 1.3579362517907598 1.3579362517907598 0.0 -0.0 0.9631928649301144 0.2688112812880415
127 57.53928234103486 38.588600448034164 44.841328146523125 4.073808755372306 1.3579362517907598 1.3579362517907598 0.0 0.0 0.6645731125154195 0.7472232451694524
128 21.824658072593547 51.02266259227243 48.576950575928294 4.114751214032708 1.3715837380109008 1.3715837380109008 0.0 -0.0 0.837305869343264 0.5467347447925007
129 52.74577262308573 20.70476249529009 52.0241240247496 4.114751214032708 1.3715837380109008 1.3715837380109008 0.0 0.0 0.6718759690179156 0.7406636768846148
130 28.71435697607607 41.859881851689494 12.347093466333122 4.156105151243529 1.385368383747842 1.385368383747842 0.0 -0.0 0.8172568989423515 0.5762735124323614
131 6.4936759302620715 18.10115062969341 48.416852331231425 4.156105151243529 1.385368383747842 1.385368383747842 0.0 0.0 0.5650588956672867 0.8250505708302167
132 38.571982668094506 19.119954111515668 2.6404646905299627 4.197874702432903 1.39929156747763 1.39929156747763 0.0 0.0 0.5632303093681869 0.8262999568008076
133 60.64628858067103 47.800878559036775 41.645458830410924 4.197874702432903 1.39929156747763 1.39929156747763 0.0 0.0 0.7047758212396541 0.7094300823872436
134 49.320697749557404 21.090239305545538 41.7704666384608 4.240064044590769 1.4133546815302465 1.4133546815302465 0.0 -0.0 0.7457546235329385 0.6662207152882933
135 2.9617478346716113 53.42008802189847 59.3286086309364 4.240064044590769 1.4133546815302465 1.4133546815302465 0.0 0.0 0.5807371118896761 0.8140911539097067
136 18.7497387054975 45.143105719045195 0.11787533252136617 4.282677396686474 1.427559132228826 1.427559132228826 0.0 -0.0 0.7765636880913803 0.6300387593933514
137 40.65638386877115 27.811372056670596 23.49056214504431 4.282677396686474 1.427559132228826 1.427559132228826 0.0 -0.0 0.9207785641385271 0.39008567754147583
138 46.173905550188486 37.299281941049955 8.556666884850507 4.3257190200907285 1.4419063400302496 1.4419063400302496 0.0 0.0 0.5933031767685688 0.8049790931672228
139 55.61900020751133 4.323330170079917 10.115807289021086 4.3257190200907285 1.4419063400302496 1.4419063400302496 0.0 0.0 0.36293328461656904 0.9318151270061183
140 16.681668925837442 39.79516029332805 18.6216417286472 4.369193219001851 1.4563977396672774 1.4563977396672774 0.0 0.0 0.5657838974393875 0.8245535649054563
141 2.869678987406675 39.465181920459074 59.70608798394167 4.369193219001851 1.4563977396672774 1.4563977396672774 0.0 0.0 0.5898626798291705 0.8075035720941112
142 8.568486543882965 35.77655804157901 10.96276998631294 4.413104340875809 1.4710347802919415 1.4710347802919415 0.0 0.0 0.494526605223718 0.8691624915548904
143 41.417737754299715 13.607180613570467 59.12930232802902 4.413104340875809 1.4710347802919415 1.4710347802919415 0.0 0.0 0.6621201748514545 0.7493976741721844
144 18.161197860737136 23.535437159134567 41.94071602786049 4.457456776861461 1.4858189256204943 1.4858189256204943 0.0 -0.0 0.8358120424685423 0.5490156916378287
145 0.37828534648907525 46.746931509838475 19.646349833304818 4.457456776861461 1.4858189256204943 1.4858189256204943 0.0 -0.0 0.7380766977143534 0.6747168208152773
146 30.40493078001866 52.59981706032855 50.056937071266994 4.502254962239401 1.500751654079801 1.500751654079801 0.0 0.0 0.5600689403365469 0.8284460043179022
147 37.5703520733845 29.878002868416562 44.49859795091865 4.502254962239401 1.500751654079801 1.500751654079801 0.0 -0.0 0.8053653384335279 0.5927787712543771
148 7.857706583609853 42.37648002612809 51.3717471728098 4.547503376865431 1.5158344589551325 1.5158344589551325 0.0 -0.0 0.9475491048281723 0.31961022189430877
149 3.397362610950559 36.48105120667726 26.829506560943997 4.547503376865431 1.5158344589551325 1.5158344589551325 0.0 -0.0 0.8855269061838191 0.46458809543994295
150 42.40597393223174 60.66203542656693 5.778746775891117 4.593206545618751 1.5310688485395858 1.5310688485395858 0.0 -0.0 0.8997163709941051 0.43647502994466686
151 27.409198741691913 46.95127317427911 50.10021083115221 4.593206545618751 1.5310688485395858 1.5310688485395858 0.0 0.0 0.6949034215940625 0.7191030765174521
152 50.34704901379419 42.29167893889948 7.202794015620864 4.639369038854297 1.5464563462847591 1.5464563462847591 0.0 0.0 0.6496096252583186 0.7602679361723385
153 25.87759815494835 4.580775993045073 3.3308373026396305 4.639369038854297 1.5464563462847591 1.5464563462847591 0.0 0.0 0.6980264017745981 0.7160720232110785
154 46.68018471676483 15.018071430919301 1.4877589410079426 4.685995472859891 1.5619984909533013 1.5619984909533013 0.0 -0.0 0.9126309719920443 0.4087844284716046
155 15.17680742733599 43.869705306600906 5.186125749487893 4.685995472859891 1.5619984909533013 1.5619984909533013 0.0 0.0 0.34897032679986184 0.9371337743423815
156 15.765180182807 39.9740342429186 52.67779980150633 4.733090510317775 1.5776968367726023 1.5776968367726023 0.0 0.0 0.6995675014656925 0.7145665195718649
157 24.516445419641556 45.413058780959254 44.595658939847624 4.733090510317775 1.5776968367726023 1.5776968367726023 0.0 0.0 0.63565327495599 0.7719746848425306
158 45.47495387027531 53.38087262792235 35.68669700534448 4.7806588607709655 1.5935529535903192 1.5935529535903192 0.0 -0.0 0.7426985308561326 0.6696259345814963
159 5.395971458089224 57.234046593402645 16.754878751177486 4.7806588607709655 1.5935529535903192 1.5935529535903192 0.0 0.0 0.4891044501540252 0.8722252213961303
160 55.09460020979668 52.372783394930465 17.369272465813083 4.82870528109414 1.609568427031376 1.609568427031376 0.0 0.0 0.6466947184788655 0.7627489371290798
161 31.60922877015551 17.692438397597854 38.2705585026744 4.82870528109414 1.609568427031376 1.609568427031376 0.0 0.0 0.6377575578887067 0.7702371695496348
162 8.891525920740069 5.112628846941783 24.305931288357357 4.877234575969327 1.6257448586564467 1.6257448586564467 0.0 0.0 0.6701572236966805 0.7422191694689361
163 35.18976944419474 39.67307531750789 25.834065877328726 4.877234575969327 1.6257448586564467 1.6257448586564467 0.0 -0.0 0.7797338016261434 0.6261111711203069
164 0.023951265230722163 37.371996956911026 33.57673020853894 4.92625159836649 1.642083866122163 1.642083866122163 0.0 0.0 0.6966086930688543 0.7174512727293072
165 24.96980269463806 29.854721269933886 48.24825618874493 4.92625159836649 1.642083866122163 1.642083866122163 0.0 -0.0 0.8994069955971553 0.43711217813153935
9_T 48.71275080194792 -0.15560186855390867 56.55555480928182 1.812266685077035 0.6040888950256798 0.6040888950256798 0.0 -0.0 0.7176002965020949 0.6964551776389529
10_T 24.650398672759295 -1.120429080097999 14.450961827688444 1.8304802680631183 0.6101600893543756 0.6101600893543756 0.0 0.0 0.38534345666417513 0.9227732226317065
15_T 19.819302996504916 -1.1356469785395689 24.749675522035414 1.9243309983014032 0.6414436661004645 0.6414436661004645 0.0 0.0 0.6340811782098568 0.7732664866913604
42_R 61.17885362986144 7.535403398798804 34.318762731418936 2.5208051992188425 0.8402683997396142 0.8402683997396142 0.0 0.0 0.6858728758951139 0.7277213739552836
52_B 29.12685030937369 62.09151073867291 29.576382553137147 2.785920596310539 0.9286401987701861 0.9286401987701861 0.0 -0.0 0.8312938914163103 0.5558331279205367
64_B 27.91282851807448 63.564729567785335 54.02603868697863 2.987922631867695 0.9959742106225564 0.9959742106225564 0.0 0.0 0.5469534661185369 0.8371630103515794
68_Ba 27.75863133931444 10.697461908961051 61.86126677607481 3.0482826729276655 1.0160942243092215 1.0160942243092215 0.0 -0.0 0.8113628171424923 0.5845428803420658
72_L -1.3735312869242762 49.10106099169653 7.656192142123686 3.1098620677011706 1.0366206892337153 1.0366206892337153 0.0 -0.0 0.9180976465577227 0.39635427509384946
73_B 3.4944706988754812 61.45404953092513 45.38370673514382 3.1098620677011706 1.0366206892337153 1.0366206892337153 0.0 0.0 0.6852526383261238 0.7283054453092375
76_L -0.5605466714963327 24.765206241896113 12.359911905123605 3.172685448767091 1.0575618162556988 1.0575618162556988 0.0 0.0 0.4849872773235938 0.8745212066235144
92_R 62.66823384891215 39.3865862167889 38.227866666509755 3.4369291164499045 1.1456430388166325 1.1456430388166325 0.0 0.0 0.3159382626609752 0.9487797500931208
105_B 18.59120521126953 62.80199784328951 24.66355785193598 3.6494569437323854 1.216485647910787 1.216485647910787 0.0 -0.0 0.8498704758576332 0.5269916263713497
107_B 38.62695263111861 62.99930954070996 21.67453593429676 3.68613459578336 1.2287115319277873 1.2287115319277873 0.0 -0.0 0.8299364941277125 0.5578578812878792
110_B 28.10786943089501 62.21461801877251 42.51641497254173 3.7605994541371652 1.253533151379048 1.253533151379048 0.0 -0.0 0.7434755474029917 0.6687631198068729
119_Ba 23.294221773434188 45.429129508316755 61.9631432115181 3.914072429287948 1.3046908097626508 1.3046908097626508 0.0 0.0 0.693566054094668 0.720393037589587
133_L -0.25371141932896535 47.800878559036775 41.645458830410924 4.197874702432903 1.39929156747763 1.39929156747763 0.0 0.0 0.7047758212396541 0.7094300823872436
136_Ba 18.7497387054975 45.143105719045195 61.01787533252136 4.282677396686474 1.427559132228826 1.427559132228826 0.0 -0.0 0.7765636880913803 0.6300387593933514
141_F 2.869678987406675 39.465181920459074 -1.1939120160583272 4.369193219001851 1.4563977396672774 1.4563977396672774 0.0 0.0 0.5898626798291705 0.8075035720941112
145_R 61.27828534648907 46.746931509838475 19.646349833304818 4.457456776861461 1.4858189256204943 1.4858189256204943 0.0 -0.0 0.7380766977143534 0.6747168208152773