ITEM: TIMESTEP
667
ITEM: NUMBER OF ATOMS
256
ITEM: BOX BOUNDS ff ff ff
0 60.9
60.9 0
60.9 0
ITEM: ATOMS id x y z AsphericalShapeX AsphericalShapeY AsphericalShapeZ OrientationX OrientationY OrientationZ OrientationW
1 45.12298280222657 49.575965846517356 21.54691626946698 4.715271074566984 1.5717570248556665 1.5717570248556665 0.0 -0.0 0.7863642711635499 0.6177630881150306
2 4.594337468751467 17.717444422599506 20.912512284035337 4.762660336713507 1.5875534455711355 1.5875534455711355 0.0 -0.0 0.8896314041555925 0.4566792799549252
3 18.90418419352335 11.856588033505933 57.56924512676159 4.810525868862514 1.6035086229542121 1.6035086229542121 0.0 0.0 0.631512325711268 0.7753658378305981
4 16.93594884458838 45.17762572706599 43.788332419590525 4.858872457607352 1.61962415253581 1.61962415253581 0.0 0.0 0.5765741652112841 0.8170448164029381
5 39.25528555779975 34.02175921905878 21.730164214403693 4.907704937647014 1.6359016458823459 1.6359016458823459 0.0 -0.0 0.8873914294477543 0.4610167577677315
6 20.940361474212402 13.115924084939637 26.853632177413097 4.957028192270163 1.6523427307567269 1.6523427307567269 0.0 0.0 0.643710445538684 0.7652691437033046
7 17.857490245849775 55.40670181633073 38.00938526350954 5.00684715384338 1.6689490512811131 1.6689490512811131 0.0 -0.0 0.7603958793842515 0.6494598575858641
8 40.60779057451078 36.193412601575545 13.923689746091238 5.057166804304351 1.6857222681014903 1.6857222681014903 0.0 -0.0 0.7854601334426244 0.6189122545016335
9 51.71404586524985 6.656411666444323 52.2699353921575 5.107992175660185 1.7026640585533968 1.7026640585533968 0.0 -0.0 0.7176002965020949 0.6964551776389529
10 47.38126722404274 14.615391826613623 13.568616391548467 5.159328350490205 1.7197761168300727 1.7197761168300727 0.0 0.0 0.38534345666417513 0.9227732226317065
11 19.436062100983023 37.295059268560806 59.908104902434474 5.211180462454684 1.7370601541515764 1.7370601541515764 0.0 0.0 0.49983922045674145 0.866118209999765
12 12.191427505251422 16.79076743648684 24.44528900390657 5.263553696808022 1.7545178989360486 1.7545178989360486 0.0 0.0 0.2746680171135514 0.9615391205639581
13 10.264536588551536 49.37701266589066 14.944473921038329 5.316453290917512 1.7721510969724978 1.7721510969724978 0.0 -0.0 0.7886508549344257 0.614841303924191
14 6.748084652448259 29.633839074324264 23.00269534126841 5.369884534786352 1.7899615115954404 1.7899615115954404 0.0 -0.0 0.7750680292508737 0.6318777967559605
15 27.845995824500836 44.67204931932378 19.25929717122514 5.423852771583627 1.8079509238612543 1.8079509238612543 0.0 0.0 0.6340811782098568 0.7732664866913604
16 19.78713535812566 30.13983899238397 50.018851633465104 5.478363398178118 1.8261211327260078 1.8261211327260078 0.0 -0.0 0.7629176367612683 0.6464956918020424
17 18.594879934711756 17.357629986210505 33.32539348888319 5.533421865677552 1.8444739552258225 1.8444739552258225 0.0 0.0 0.6579222258448839 0.7530858813836
18 37.19271175558617 28.92508705126795 17.207406425011058 5.589033679974727 1.8630112266582421 1.8630112266582421 0.0 0.0 0.506211649243881 0.8624092799650234
19 14.011759975586854 12.175960306545536 35.14261344661763 5.645204402297538 1.8817348007658425 1.8817348007658425 0.0 0.0 0.6434542777811493 0.7654845474633303
20 31.959045748402794 49.719865126426726 35.56253590449846 5.7019396497648875 1.9006465499216632 1.9006465499216632 0.0 -0.0 0.7861857262579329 0.6179902942832407
21 47.282551742774466 16.290159033417186 46.2941636155566 5.759245095948839 1.9197483653162732 1.9197483653162732 0.0 0.0 0.6069811502172251 0.7947162281474907
22 14.691258906360746 9.062373979499043 29.694593863429603 5.8171264714417985 1.9390421571472505 1.9390421571472505 0.0 -0.0 0.8910647246123514 0.45387625687131333
23 42.78097480039081 6.295941464941801 49.47770264918597 5.875589564429518 1.9585298548098877 1.9585298548098877 0.0 -0.0 0.7582829367961579 0.651925599868416
24 24.114796696715437 8.645336865715093 45.33177311404919 5.934640221270017 1.9782134070900181 1.9782134070900181 0.0 0.0 0.5255054740936084 0.8507902189715464
25 13.183197104605851 4.463086939391177 53.54916601929109 5.994284347078367 1.9980947823594228 1.9980947823594228 0.0 0.0 0.6637035342538496 0.7479957343587923
26 5.210035569311667 44.948196781981316 27.701085770632027 6.054527906316451 2.0181759687721486 2.0181759687721486 0.0 0.0 0.5361151400853296 0.8441448670526212
27 6.405619054560207 28.86454064694125 31.168110232576982 6.115376923390693 2.038458974463542 2.038458974463542 0.0 -0.0 0.7297620279401082 0.6837012378054764
28 13.236146835917186 36.00079460225501 27.813683896134734 6.176837483253447 2.0589458277511103 2.0589458277511103 0.0 -0.0 0.9828164757017253 0.18458541407500267
29 45.423239667215974 29.071812427050475 29.307258335406804 6.238915732011914 2.0796385773373203 2.0796385773373203 0.0 -0.0 0.8740853421614372 0.4857723897243679
30 21.791212930861004 0.34738559246267875 24.130891890868835 6.30161787754267 2.1005392925142385 2.1005392925142385 0.0 -0.0 0.8433777540022546 0.5373210995802349
31 60.581788698025186 36.66919366323671 33.705960562602996 6.364950190112456 2.1216500633708706 2.1216500633708706 0.0 0.0 0.6952778540174372 0.7187410560924617
32 53.30372926296269 33.20724837593352 36.65321431658475 6.428919003005576 2.142973001001873 2.142973001001873 0.0 0.0 0.6353234605105568 0.7722461398575527
33 29.69932818782226 20.205594862923462 24.558412523542405 6.493530713156386 2.164510237718754 2.164510237718754 0.0 0.0 0.6411270229476993 0.7674347792784871
34 21.24452054798774 18.786598795461554 22.404198895885685 6.558791781789659 2.186263927263273 2.186263927263273 0.0 -0.0 0.7453722743584635 0.6666484625480594
35 21.207363669325332 44.081891548759316 38.662093790942514 6.62470873506691 2.208236245022346 2.208236245022346 0.0 -0.0 0.7109313362059317 0.7032614273514853
36 39.944189621245776 4.611192614038568 60.457066108715665 6.691288164738267 2.2304293882461423 2.2304293882461423 0.0 -0.0 0.739632735620696 0.6730107104632479
37 25.74763353249611 51.542198918257114 26.89257912464614 6.7585367288023575 2.2528455762674673 2.2528455762674673 0.0 0.0 0.5163603530767541 0.8563714064414165
38 19.96803903037426 13.822038353082368 16.23021970038656 6.826461152171277 2.2754870507237146 2.2754870507237146 0.0 0.0 0.5145463711011363 0.8574625542766586
39 9.974784742540042 38.84289158902287 23.79075558086198 6.895068227344113 2.298356075781371 2.298356075781371 0.0 0.0 0.5880831456971182 0.8088004783300898
40 56.989180795815166 16.556257692221486 13.578220527679298 6.964364815085751 2.321454938361903 2.321454938361903 0.0 -0.0 0.8608342640850161 0.5088854191045453
41 9.606238622130896 16.208007672420656 30.62988621360906 7.034357845112383 2.3447859483707916 2.3447859483707916 0.0 0.0 0.5813114541301716 0.8136811373609846
42 13.394866545114086 54.72238216717561 42.452273137229525 7.10505431678547 2.3683514389285327 2.3683514389285327 0.0 0.0 0.6858728758951139 0.7277213739552836
43 60.12799375510211 44.438331568680695 41.61628210959217 7.17646129981143 2.392153766603777 2.392153766603777 0.0 -0.0 0.8971229945165649 0.4417808650333688
44 43.415019433931114 18.558029024866666 25.2328180603864 7.248585934947512 2.4161953116491546 2.4161953116491546 0.0 -0.0 0.7662793896249596 0.6425075073771507
45 45.920162721005994 53.32508476458219 41.48037704722782 7.321435434717812 2.440478478239225 2.440478478239225 0.0 -0.0 0.8021859139948743 0.5970743332184094
46 15.229751968347786 49.0282674078431 13.682369046536984 7.39501708413246 2.465005694710866 2.465005694710866 0.0 0.0 0.6689296931602822 0.7433256793683982
47 46.69513932020774 28.830162819639526 17.900900771307445 7.4693382414183676 2.4897794138061227 2.4897794138061227 0.0 -0.0 0.8121614142020023 0.5834328044268712
48 0.017543067483620077 49.79497314254005 13.334038778383519 7.544406338752835 2.5148021129176126 2.5148021129176126 0.0 0.0 0.43861391052531945 0.8986756019241242
49 24.882213193754424 0.4644086045026535 7.910937330421017 7.620228883008102 2.540076294336029 2.540076294336029 0.0 -0.0 0.7611420715427216 0.6485851886434459
50 26.71213084885456 19.897514292841706 59.505173403917986 7.696813456502007 2.5656044855006312 2.5656044855006312 0.0 0.0 0.5689873473401131 0.8223462765568174
51 48.05723442496425 27.63392593996254 40.078475549807024 7.774167717755547 2.5913892392518454 2.5913892392518454 0.0 -0.0 0.9816329176571261 0.1907794930592849
52 34.48759614496814 7.591345144104211 20.237361103463176 7.8522994022593835 2.6174331340864243 2.6174331340864243 0.0 -0.0 0.8312938914163103 0.5558331279205367
53 9.915149124418884 55.37851592286994 5.282739849585917 7.931216323246797 2.6437387744156595 2.6437387744156595 0.0 0.0 0.4937832216878833 0.8695850332081013
54 38.29168380079643 50.736571169141314 40.0423799752427 8.010926372476119 2.67030879082537 2.67030879082537 0.0 -0.0 0.7425013715714329 0.6698445440656666
55 21.924818419580003 39.49138501355608 14.778068945281678 8.010926372476119 2.67030879082537 2.67030879082537 0.0 -0.0 0.899222239431846 0.4374921303419936
56 42.298219889901816 5.617594010749376 18.678263117083812 8.091437521018515 2.6971458403395188 2.6971458403395188 0.0 0.0 0.591041689671776 0.8066410112744902
57 52.85099184335994 60.016596003191665 54.444644201101354 8.091437521018515 2.6971458403395188 2.6971458403395188 0.0 0.0 0.6906372933410847 0.7232013060320761
58 25.40849362460811 37.52618706145496 31.8534478750926 8.172757820055837 2.7242526066852712 2.7242526066852712 0.0 -0.0 0.9778925487455288 0.20910801779935065
59 36.78511844345022 57.33362995801617 22.56187855643848 8.172757820055837 2.7242526066852712 2.7242526066852712 0.0 -0.0 0.8334397726994561 0.5526103014626843
60 51.574893126713505 25.05860854097781 54.09040701740646 8.254895401686026 2.751631800561958 2.751631800561958 0.0 -0.0 0.8251393648538317 0.5649292243888745
61 6.765649084524068 12.696552742732187 40.54183254430845 8.254895401686026 2.751631800561958 2.751631800561958 0.0 -0.0 0.8342848482439009 0.5513336485202505
62 17.04687672240038 10.8555488476797 42.35059632185753 8.33785847973522 2.779286159911699 2.779286159911699 0.0 0.0 0.6993489688984815 0.7147803996337831
63 32.61216480849745 8.694486562282545 47.73108853868099 8.33785847973522 2.779286159911699 2.779286159911699 0.0 0.0 0.6638694557235675 0.747848477806363
64 44.49002781026107 30.780418328780062 46.19459943100146 8.421655350580709 2.807218450193571 2.807218450193571 0.0 0.0 0.5469534661185369 0.8371630103515794
65 10.428971658598698 30.269578501870257 5.847901451780846 8.421655350580709 2.807218450193571 2.807218450193571 0.0 0.0 0.534266604389083 0.8453160328744268
66 19.97068155472223 0.1828206296443824 31.472103228914303 8.506294393979159 2.83543146465976 2.83543146465976 0.0 0.0 0.49259387534365895 0.8702593142126752
67 51.29535671061173 11.97843797538723 8.912039835558048 8.506294393979159 2.83543146465976 2.83543146465976 0.0 -0.0 0.7991221049958454 0.6011687461162707
68 38.24648452024084 21.012897110112608 23.370757159277296 8.591784073905922 2.863928024635318 2.863928024635318 0.0 -0.0 0.8113628171424923 0.5845428803420658
69 35.01876317734223 12.615063544111457 56.19037464686839 8.591784073905922 2.863928024635318 2.863928024635318 0.0 0.0 0.69974083585519 0.7143967823532522
70 14.47771518676471 0.4823343779758543 16.625939146066518 8.678132939399712 2.8927109797999293 2.8927109797999293 0.0 -0.0 0.9226100212719841 0.3857340387475665
71 13.35940123990359 5.318953620013218 24.659507151678014 8.678132939399712 2.8927109797999293 2.8927109797999293 0.0 -0.0 0.8908476943010929 0.4543020862360491
72 8.539277115707502 43.27101846862031 9.463924863744717 8.765349625419285 2.921783208473123 2.921783208473123 0.0 -0.0 0.9180976465577227 0.39635427509384946
73 39.433055632646344 37.83222850993849 27.212969155079577 8.765349625419285 2.921783208473123 2.921783208473123 0.0 0.0 0.6852526383261238 0.7283054453092375
74 40.74544643244611 18.20927530094701 14.144898158990102 8.853442853705959 2.9511476179019898 2.9511476179019898 0.0 0.0 0.6622208999947843 0.7493086677799063
75 48.86767181271001 37.08765660456798 46.814808941412664 8.853442853705959 2.9511476179019898 2.9511476179019898 0.0 0.0 0.6669694181073614 0.7450850926636016
76 60.531392448072836 15.176233894658782 29.74959454504129 8.942421433655722 2.9808071445519726 2.9808071445519726 0.0 0.0 0.4849872773235938 0.8745212066235144
77 17.94710810897555 44.891750346639206 18.041017477408676 8.942421433655722 2.9808071445519726 2.9808071445519726 0.0 -0.0 0.724549744492829 0.6892225096116464
78 2.8540813997302497 12.203864901278816 16.31529224830359 9.032294263201125 3.0107647544003524 3.0107647544003524 0.0 0.0 0.646327957303847 0.7630597431442944
79 0.5713112286433097 24.965298652848045 28.331294150924908 9.032294263201125 3.0107647544003524 3.0107647544003524 0.0 0.0 0.4210348644808628 0.9070444547493698
80 1.8222571965304108 5.345696945952338 22.22996580418813 9.123070329699686 3.0410234432332186 3.0410234432332186 0.0 0.0 0.5786941501693628 0.8155446527074768
81 58.37806105020394 54.19967406153552 26.827819936623715 9.123070329699686 3.0410234432332186 3.0410234432332186 0.0 0.0 0.683142879342022 0.730284743373632
82 14.079209728828763 60.78019785704457 6.036605799585238 9.21475871083372 3.0715862369445412 3.0715862369445412 0.0 0.0 0.3480344086077516 0.937481760049257
83 15.341105063816382 44.05959718900935 3.332982825807845 9.21475871083372 3.0715862369445412 3.0715862369445412 0.0 -0.0 0.8280938516825816 0.560589486884571
84 34.50172482505533 20.506098285614264 5.199086062810576 9.30736857551783 3.1024561918393054 3.1024561918393054 0.0 -0.0 0.8521868438699086 0.5232375972109076
85 19.513887722027665 47.05828540026074 26.057471141495935 9.30736857551783 3.1024561918393054 3.1024561918393054 0.0 0.0 0.2683204071818837 0.9633297250109892
86 6.830365032365234 0.5248702789018361 57.32554949489376 9.400909184815687 3.1336363949385477 3.1336363949385477 0.0 0.0 0.5717525694490604 0.8204261083902665
87 6.625829873155469 0.8737635871806657 45.04323939860038 9.400909184815687 3.1336363949385477 3.1336363949385477 0.0 -0.0 0.7407334016199733 0.6717990977401677
88 35.046924635014506 46.03161784195256 55.05029606160001 9.495389892866257 3.1651299642887243 3.1651299642887243 0.0 0.0 0.6524446383875427 0.7578363898885753
89 38.163331252815276 18.82622761665744 46.16352698827022 9.495389892866257 3.1651299642887243 3.1651299642887243 0.0 0.0 0.3815125934194192 0.9243636411404275
90 18.655869633476875 15.81092591699475 51.77033771032338 9.590820147818999 3.196940049272969 3.196940049272969 0.0 -0.0 0.7664413141092511 0.642314340511314
91 29.601514828555143 0.2427250926857746 25.415778605319684 9.590820147818999 3.196940049272969 3.196940049272969 0.0 -0.0 0.7164030651197486 0.6976866404676452
92 53.177480429966636 18.86614026699117 36.92091054886856 9.687209492778695 3.229069830926195 3.229069830926195 0.0 0.0 0.3159382626609752 0.9487797500931208
93 15.747206608599951 27.882174163992595 34.7375049975647 9.687209492778695 3.229069830926195 3.229069830926195 0.0 -0.0 0.807675111463051 0.5896277760783901
94 53.796961439310415 16.783337961338383 47.097075265592096 9.784567566760376 3.2615225222534527 3.2615225222534527 0.0 0.0 0.5856043209472178 0.8105970511221638
95 43.33963096721891 59.55784800723048 53.94371895465548 9.784567566760376 3.2615225222534527 3.2615225222534527 0.0 -0.0 0.8283891439806925 0.5601530381377355
96 46.26063987168785 11.594185369675492 39.397487382004186 9.882904105652702 3.294301368550931 3.294301368550931 0.0 0.0 0.6380161188650698 0.7700230074928626
97 27.130351010831713 57.33922181918469 18.659992620742173 9.882904105652702 3.294301368550931 3.294301368550931 0.0 0.0 0.5652655734899162 0.8249089837231233
98 20.0203929231045 22.73493763035964 39.99907259523185 9.982228943191261 3.3274096477303807 3.3274096477303807 0.0 -0.0 0.9884337224668884 0.15165347437579585
99 50.173850923717026 40.03675312003514 6.834252326892275 9.982228943191261 3.3274096477303807 3.3274096477303807 0.0 0.0 0.644584962479319 0.7645326848117973
100 27.846775445221844 35.659678252848735 54.87622462957593 10.082552011942827 3.3608506706476486 3.3608506706476486 0.0 -0.0 0.7665764345255346 0.6421530736748979
101 16.87834070836509 20.206418229761194 0.17803818043790576 10.082552011942827 3.3608506706476486 3.3608506706476486 0.0 -0.0 0.7486465484609144 0.6629693397718779
102 42.533390791842365 45.42979603369715 8.326487320595641 10.183883344297609 3.3946277814325825 3.3946277814325825 0.0 -0.0 0.764238184631255 0.644934102952793
103 25.004504006557443 44.260844094793775 1.2330964627798757 10.183883344297609 3.3946277814325825 3.3946277814325825 0.0 -0.0 0.7262700822056904 0.6874094614514261
104 49.066327773101605 58.491588056491985 47.95543460325007 10.28623307347361 3.428744357824465 3.428744357824465 0.0 0.0 0.6864264585310771 0.7271992278794606
105 21.877353617031403 46.75260129719438 10.395098901198155 10.28623307347361 3.428744357824465 3.428744357824465 0.0 -0.0 0.8498704758576332 0.5269916263713497
106 13.16025022346873 18.633244650917096 46.670307525984946 10.3896114345285 3.4632038115095463 3.4632038115095463 0.0 -0.0 0.793590538753224 0.6084521811953406
107 39.92092980981349 43.93636667585793 17.73019007985788 10.3896114345285 3.4632038115095463 3.4632038115095463 0.0 -0.0 0.8299364941277125 0.5578578812878792
108 51.49562081357014 41.771569030050976 57.99984336472293 10.494028765385146 3.498009588461692 3.498009588461692 0.0 -0.0 0.7596155095013813 0.650372414640225
109 58.91859749366984 42.57043945510605 4.454779495437851 10.494028765385146 3.498009588461692 3.498009588461692 0.0 -0.0 0.746179639226726 0.6657446552571586
110 44.02342508292469 21.33708258974632 52.48302776766278 10.599495507863296 3.533165169287743 3.533165169287743 0.0 -0.0 0.7434755474029917 0.6687631198068729
111 33.012388361732164 43.312727773372714 26.50994934957531 10.599495507863296 3.533165169287743 3.533165169287743 0.0 -0.0 0.7635489887521677 0.6457499065238353
112 52.82674027499211 0.379382736734687 17.480669316879087 10.70602220872521 3.568674069575141 3.568674069575141 0.0 -0.0 0.925703395166632 0.3782502137170186
113 18.96212267987781 8.883767109903808 10.771490530119554 10.70602220872521 3.568674069575141 3.568674069575141 0.0 -0.0 0.7476030998596368 0.6641457709571461
114 8.239611077279704 3.270327194680863 34.58722621779135 10.813619520729912 3.604539840243253 3.604539840243253 0.0 -0.0 0.7095009508808979 0.7047044775642494
115 28.855461799894265 16.114951104752222 53.113509119283435 10.813619520729912 3.604539840243253 3.604539840243253 0.0 0.0 0.692332939305712 0.7215782016887105
116 11.840403081445599 32.816352601297496 55.6138694782967 10.922298203697734 3.6407660678992704 3.6407660678992704 0.0 0.0 0.4838188577050026 0.8751681626573412
117 48.32367380120123 37.828605466756144 23.877590597862575 10.922298203697734 3.6407660678992704 3.6407660678992704 0.0 0.0 0.4072390243389004 0.9133216175343166
118 46.11292812568338 17.044413959660176 60.532778483204076 11.03206912558796 3.677356375195988 3.677356375195988 0.0 -0.0 0.9854258972554679 0.17010526452245991
119 37.79084766341397 28.983238321540846 59.45604553045768 11.03206912558796 3.677356375195988 3.677356375195988 0.0 0.0 0.693566054094668 0.720393037589587
120 26.430208687648122 24.723159855457293 31.4039161014114 11.142943263584371 3.7143144211947363 3.7143144211947363 0.0 -0.0 0.8546373086497397 0.5192254526349123
121 60.3295988194257 42.632804090761134 58.08816975227425 11.142943263584371 3.7143144211947363 3.7143144211947363 0.0 -0.0 0.738138054050796 0.6746496966293722
122 59.49312443169785 28.294413601550293 0.6948728525651933 11.254931705192735 3.7516439017309167 3.7516439017309167 0.0 0.0 0.30497028615780525 0.9523618663936657
123 43.50418568767583 41.970542471652294 51.836303203745864 11.254931705192735 3.7516439017309167 3.7516439017309167 0.0 -0.0 0.8240326158671573 0.5665423620411186
124 6.914090195878748 46.01885677216583 0.6106928960418665 11.368045649350892 3.7893485497836235 3.7893485497836235 0.0 -0.0 0.7351480847541838 0.6779065521753388
125 60.89146011878614 56.793102006575225 51.175186484232896 11.368045649350892 3.7893485497836235 3.7893485497836235 0.0 0.0 0.6354145425399089 0.7721711980699606
126 36.328005398140334 60.611445473751516 42.79100180122098 11.482296407547304 3.827432135849132 3.827432135849132 0.0 -0.0 0.9631928649301144 0.2688112812880415
127 1.158443917699562 24.327565626260608 38.15302392041512 11.482296407547304 3.827432135849132 3.827432135849132 0.0 0.0 0.6645731125154195 0.7472232451694524
128 10.18431590183811 47.2144461143902 49.16633957347297 11.597695404952914 3.8658984683176363 3.8658984683176363 0.0 -0.0 0.837305869343264 0.5467347447925007
129 35.748307645318434 56.78344349187342 13.086049055926136 11.597695404952914 3.8658984683176363 3.8658984683176363 0.0 0.0 0.6718759690179156 0.7406636768846148
130 30.235868982512176 35.83690422057174 15.104801010450046 11.714254181564035 3.9047513938546765 3.9047513938546765 0.0 -0.0 0.8172568989423515 0.5762735124323614
131 7.834805847321967 36.786408741052036 38.095547158232975 11.714254181564035 3.9047513938546765 3.9047513938546765 0.0 0.0 0.5650588956672867 0.8250505708302167
132 26.462165123709013 60.378150876837346 52.155627788670955 11.831984393355174 3.9439947977850953 3.9439947977850953 0.0 0.0 0.5632303093681869 0.8262999568008076
133 15.091795451307105 46.78857001713356 33.65401013118227 11.831984393355174 3.9439947977850953 3.9439947977850953 0.0 0.0 0.7047758212396541 0.7094300823872436
134 58.492070608169776 32.09524210997211 46.78959918554309 11.950897813445575 3.9836326044818486 3.9836326044818486 0.0 -0.0 0.7457546235329385 0.6662207152882933
135 42.37412517559371 45.05028243996799 60.74469587310157 11.950897813445575 3.9836326044818486 3.9836326044818486 0.0 0.0 0.5807371118896761 0.8140911539097067
136 22.399716035474903 2.5832377326285734 0.5760577923497417 12.071006333276454 4.023668777758845 4.023668777758845 0.0 -0.0 0.7765636880913803 0.6300387593933514
137 1.5933291670538132 45.73699456692275 20.368627508487553 12.071006333276454 4.023668777758845 4.023668777758845 0.0 -0.0 0.9207785641385271 0.39008567754147583
138 53.22897851900271 19.29669355208821 24.532553750470953 12.192321963799959 4.06410732126662 4.06410732126662 0.0 0.0 0.5933031767685688 0.8049790931672228
139 8.262982316850927 10.513957823473923 0.5218220510996858 12.192321963799959 4.06410732126662 4.06410732126662 0.0 0.0 0.36293328461656904 0.9318151270061183
140 0.7954170815623658 0.5566569839873348 39.258985851537936 12.314856836680367 4.104952278893449 4.104952278893449 0.0 0.0 0.5657838974393875 0.8245535649054563
141 18.358666828513893 48.91953090510092 55.68388707100186 12.314856836680367 4.104952278893449 4.104952278893449 0.0 0.0 0.5898626798291705 0.8075035720941112
142 7.180819876265798 16.908654316619913 8.579645764538588 12.43862320550636 4.146207735168844 4.146207735168844 0.0 0.0 0.494526605223718 0.8691624915548904
143 32.44302162925063 60.85324003342304 0.3781159253477102 12.43862320550636 4.146207735168844 4.146207735168844 0.0 0.0 0.6621201748514545 0.7493976741721844
144 8.977380790235614 29.79708008736838 46.594236911820666 12.563633447018717 4.187877815672985 4.187877815672985 0.0 -0.0 0.8358120424685423 0.5490156916378287
145 12.134150804159805 27.439138109201537 16.34714446374872 12.563633447018717 4.187877815672985 4.187877815672985 0.0 -0.0 0.7380766977143534 0.6747168208152773
146 19.78172836541155 57.880027113139406 47.73293667494831 12.689900062345444 4.229966687448554 4.229966687448554 0.0 0.0 0.5600689403365469 0.8284460043179022
147 38.0673829857346 15.58344607923901 33.547401651128204 12.689900062345444 4.229966687448554 4.229966687448554 0.0 -0.0 0.8053653384335279 0.5927787712543771
148 60.769061628108695 19.140673840705507 54.5040513850522 12.81743567825363 4.272478559417894 4.272478559417894 0.0 -0.0 0.9475491048281723 0.31961022189430877
149 46.57938745727067 60.41202485235605 25.354974763700433 12.81743567825363 4.272478559417894 4.272478559417894 0.0 -0.0 0.8855269061838191 0.46458809543994295
150 19.941169754666635 30.766672074590982 23.35322446904171 12.946253048410691 4.315417682803566 4.315417682803566 0.0 -0.0 0.8997163709941051 0.43647502994466686
151 33.998162342916885 29.55986940557812 38.88831483316358 12.946253048410691 4.315417682803566 4.315417682803566 0.0 0.0 0.6949034215940625 0.7191030765174521
152 55.75717204058239 3.5319679197695644 1.0408769950808328 13.076365054661219 4.358788351553717 4.358788351553717 0.0 0.0 0.6496096252583186 0.7602679361723385
153 33.68796389023027 40.155700853733705 7.008771058784853 13.076365054661219 4.358788351553717 4.358788351553717 0.0 0.0 0.6980264017745981 0.7160720232110785
154 37.979105860688065 12.347319255891803 7.063020532882133 13.207784708313953 4.4025949027713 4.4025949027713 0.0 -0.0 0.9126309719920443 0.4087844284716046
155 20.914746457696108 30.180245055513844 8.278653766045029 13.207784708313953 4.4025949027713 4.4025949027713 0.0 0.0 0.34897032679986184 0.9371337743423815
156 33.654942308097205 43.435640035766944 46.76304061779771 13.3405251514444 4.446841717148045 4.446841717148045 0.0 0.0 0.6995675014656925 0.7145665195718649
157 25.74347694226707 32.1357066096442 46.557649199680704 13.3405251514444 4.446841717148045 4.446841717148045 0.0 0.0 0.63565327495599 0.7719746848425306
158 51.49159601218165 60.6653450586129 33.858093840893076 13.47459965820701 4.491533219402271 4.491533219402271 0.0 -0.0 0.7426985308561326 0.6696259345814963
159 25.679401143803315 17.157613703723474 15.001971793495196 13.47459965820701 4.491533219402271 4.491533219402271 0.0 0.0 0.4891044501540252 0.8722252213961303
160 46.259076630580616 60.711857907650604 3.4512484636291014 13.6100216361642 4.5366738787214285 4.5366738787214285 0.0 0.0 0.6466947184788655 0.7627489371290798
161 28.24825247136513 7.646487289216832 36.76542857446793 13.6100216361642 4.5366738787214285 4.5366738787214285 0.0 0.0 0.6377575578887067 0.7702371695496348
162 0.19149056474176304 1.009180316443238 8.729603925083381 13.746804627626503 4.582268209208806 4.582268209208806 0.0 0.0 0.6701572236966805 0.7422191694689361
163 38.84317312943569 60.88300879228723 32.94239787760588 13.746804627626503 4.582268209208806 4.582268209208806 0.0 -0.0 0.7797338016261434 0.6261111711203069
164 43.79798748587945 39.908408577974626 34.78722796170308 13.884962311007653 4.628320770335884 4.628320770335884 0.0 0.0 0.6966086930688543 0.7174512727293072
165 0.886073282987522 32.56599355955449 16.5173554064701 13.884962311007653 4.628320770335884 4.628320770335884 0.0 -0.0 0.8994069955971553 0.43711217813153935
11_F 19.436062100983023 37.295059268560806 -0.991895097565525 5.211180462454684 1.7370601541515764 1.7370601541515764 0.0 0.0 0.49983922045674145 0.866118209999765
25_B 13.183197104605851 65.36308693939118 53.54916601929109 5.994284347078367 1.9980947823594228 1.9980947823594228 0.0 0.0 0.6637035342538496 0.7479957343587923
30_B 21.791212930861004 61.24738559246268 24.130891890868835 6.30161787754267 2.1005392925142385 2.1005392925142385 0.0 -0.0 0.8433777540022546 0.5373210995802349
31_L -0.31821130197481295 36.66919366323671 33.705960562602996 6.364950190112456 2.1216500633708706 2.1216500633708706 0.0 0.0 0.6952778540174372 0.7187410560924617
36_BB 39.944189621245776 65.51119261403856 60.457066108715665 6.691288164738267 2.2304293882461423 2.2304293882461423 0.0 -0.0 0.739632735620696 0.6730107104632479
36_FT 39.944189621245776 4.611192614038568 -0.44293389128433347 6.691288164738267 2.2304293882461423 2.2304293882461423 0.0 -0.0 0.739632735620696 0.6730107104632479
36_FB 39.944189621245776 65.51119261403856 -0.44293389128433347 6.691288164738267 2.2304293882461423 2.2304293882461423 0.0 -0.0 0.739632735620696 0.6730107104632479
42_T 13.394866545114086 -6.177617832824389 42.452273137229525 7.10505431678547 2.3683514389285327 2.3683514389285327 0.0 0.0 0.6858728758951139 0.7277213739552836
43_L -0.7720062448978879 44.438331568680695 41.61628210959217 7.17646129981143 2.392153766603777 2.392153766603777 0.0 -0.0 0.8971229945165649 0.4417808650333688
48_R 60.91754306748362 49.79497314254005 13.334038778383519 7.544406338752835 2.5148021129176126 2.5148021129176126 0.0 0.0 0.43861391052531945 0.8986756019241242
49_B 24.882213193754424 61.36440860450265 7.910937330421017 7.620228883008102 2.540076294336029 2.540076294336029 0.0 -0.0 0.7611420715427216 0.6485851886434459
50_F 26.71213084885456 19.897514292841706 -1.3948265960820123 7.696813456502007 2.5656044855006312 2.5656044855006312 0.0 0.0 0.5689873473401131 0.8223462765568174
53_T 9.915149124418884 -5.5214840771300615 5.282739849585917 7.931216323246797 2.6437387744156595 2.6437387744156595 0.0 0.0 0.4937832216878833 0.8695850332081013
56_B 42.298219889901816 66.51759401074938 18.678263117083812 8.091437521018515 2.6971458403395188 2.6971458403395188 0.0 0.0 0.591041689671776 0.8066410112744902
57_T 52.85099184335994 -0.8834039968083331 54.444644201101354 8.091437521018515 2.6971458403395188 2.6971458403395188 0.0 0.0 0.6906372933410847 0.7232013060320761
59_T 36.78511844345022 -3.5663700419838307 22.56187855643848 8.172757820055837 2.7242526066852712 2.7242526066852712 0.0 -0.0 0.8334397726994561 0.5526103014626843
66_B 19.97068155472223 61.08282062964438 31.472103228914303 8.506294393979159 2.83543146465976 2.83543146465976 0.0 0.0 0.49259387534365895 0.8702593142126752
70_B 14.47771518676471 61.38233437797585 16.625939146066518 8.678132939399712 2.8927109797999293 2.8927109797999293 0.0 -0.0 0.9226100212719841 0.3857340387475665
71_B 13.35940123990359 66.21895362001322 24.659507151678014 8.678132939399712 2.8927109797999293 2.8927109797999293 0.0 -0.0 0.8908476943010929 0.4543020862360491
76_L -0.36860755192716255 15.176233894658782 29.74959454504129 8.942421433655722 2.9808071445519726 2.9808071445519726 0.0 0.0 0.4849872773235938 0.8745212066235144