ITEM: TIMESTEP
254
ITEM: NUMBER OF ATOMS
203
ITEM: BOX BOUNDS ff ff ff
0 60.9
60.9 0
60.9 0
ITEM: ATOMS id x y z AsphericalShapeX AsphericalShapeY AsphericalShapeZ OrientationX OrientationY OrientationZ OrientationW
1 41.92855425615488 53.96428475663747 22.788002331278616 1.7999912036146175 0.5999970678715422 0.5999970678715422 0.0 -0.0 0.7863642711635499 0.6177630881150306
2 20.39385220315479 7.557371963294737 25.667388312808182 1.8180814159609873 0.6060271386536592 0.6060271386536592 0.0 -0.0 0.8896314041555925 0.4566792799549252
3 13.61674239214817 21.84736209254037 53.57742451749456 1.8363534379640158 0.6121178126546716 0.6121178126546716 0.0 0.0 0.631512325711268 0.7753658378305981
4 24.193857771658145 48.794184145599786 39.05619708299359 1.8548090968411424 0.6182696989470429 0.6182696989470429 0.0 0.0 0.5765741652112841 0.8170448164029381
5 54.89684059382216 13.519967977153343 23.443701284980946 1.8734502381736335 0.6244834127245387 0.6244834127245387 0.0 -0.0 0.8873914294477543 0.4610167577677315
6 23.560484679943187 8.511770740734391 19.345352888120537 1.8922787260911302 0.630759575363715 0.630759575363715 0.0 0.0 0.643710445538684 0.7652691437033046
7 46.25850493638194 1.9326458926128371 23.47577156673034 1.9112964434581767 0.6370988144860594 0.6370988144860594 0.0 -0.0 0.7603958793842515 0.6494598575858641
8 48.64341492053487 35.98943439603989 7.306854325282104 1.930505292062315 0.6435017640207671 0.6435017640207671 0.0 -0.0 0.7854601334426244 0.6189122545016335
9 48.572369655379575 60.4783158570267 55.763928757799086 1.9499071928044056 0.6499690642681366 0.6499690642681366 0.0 -0.0 0.7176002965020949 0.6964551776389529
10 22.07017924768187 60.407314006745736 14.203627970443454 1.9695040858906958 0.6565013619635695 0.6565013619635695 0.0 0.0 0.38534345666417513 0.9227732226317065
11 24.107015356743002 6.766111440387045 4.278456975896521 1.9892979310268626 0.6630993103422864 0.6630993103422864 0.0 0.0 0.49983922045674145 0.866118209999765
12 9.107348593400456 60.61457166281576 20.166124070223237 2.0092907076138737 0.6697635692046188 0.6697635692046188 0.0 0.0 0.2746680171135514 0.9615391205639581
13 19.101469668908287 54.2105562343937 36.97523690306068 2.0294844149460505 0.6764948049820165 0.6764948049820165 0.0 -0.0 0.7886508549344257 0.614841303924191
14 25.783760799881584 38.106363735929214 13.059754033932865 2.04988107241098 0.683293690803655 0.683293690803655 0.0 -0.0 0.7750680292508737 0.6318777967559605
15 20.4322894995941 58.248158383422755 24.79265985934396 2.070482719691382 0.6901609065637908 0.6901609065637908 0.0 0.0 0.6340811782098568 0.7732664866913604
16 21.32722848031575 32.99027502471217 50.23483620198628 2.0912914169691588 0.6970971389897187 0.6970971389897187 0.0 -0.0 0.7629176367612683 0.6464956918020424
17 32.193684269586626 30.925243587810897 38.50358957343356 2.112309245131376 0.704103081710461 0.704103081710461 0.0 0.0 0.6579222258448839 0.7530858813836
18 48.9762036009561 40.56438622614081 3.6180309876077312 2.1335383059783832 0.71117943532613 0.71117943532613 0.0 0.0 0.506211649243881 0.8624092799650234
19 20.893013399669332 18.532467777208947 41.08586608856211 2.1549807224339426 0.7183269074779792 0.7183269074779792 0.0 0.0 0.6434542777811493 0.7654845474633303
20 20.1439408556065 54.86312441997517 11.436173915162867 2.1766386387575625 0.7255462129191919 0.7255462129191919 0.0 -0.0 0.7861857262579329 0.6179902942832407
21 42.85060222967329 20.039557124193756 44.027463651495296 2.1985142207589417 0.7328380735863078 0.7328380735863078 0.0 0.0 0.6069811502172251 0.7947162281474907
22 55.60881854399936 54.82623889939792 54.762792325757964 2.220609656014467 0.740203218671494 0.740203218671494 0.0 -0.0 0.8910647246123514 0.45387625687131333
23 41.5236527154316 8.0513606972911 46.48465081108813 2.2429271540861486 0.7476423846953786 0.7476423846953786 0.0 -0.0 0.7582829367961579 0.651925599868416
24 23.099659032058106 11.567954292943094 51.901841345799426 2.2654689467423323 0.7551563155807789 0.7551563155807789 0.0 0.0 0.5255054740936084 0.8507902189715464
25 12.06156726777013 4.178889210887 11.605473670399654 2.2882372881810835 0.7627457627270253 0.7627457627270253 0.0 0.0 0.6637035342538496 0.7479957343587923
26 55.99233081699693 17.428942612300084 52.946262885922174 2.311234455255522 0.7704114850851768 0.7704114850851768 0.0 0.0 0.5361151400853296 0.8441448670526212
27 59.20473593011749 26.031784955642742 19.78937991729004 2.3344627477015263 0.7781542492338461 0.7781542492338461 0.0 -0.0 0.7297620279401082 0.6837012378054764
28 7.257619762249004 55.560560091755434 35.9524188363388 2.357924488367692 0.7859748294558934 0.7859748294558934 0.0 -0.0 0.9828164757017253 0.18458541407500267
29 43.905902727490115 33.85302373223772 26.564589897921405 2.3816220234476435 0.7938740078158787 0.7938740078158787 0.0 -0.0 0.8740853421614372 0.4857723897243679
30 17.31021952235697 6.89117434549841 27.81607055650811 2.405557722714624 0.8018525742382053 0.8018525742382053 0.0 -0.0 0.8433777540022546 0.5373210995802349
31 46.65075249542661 51.4596520051884 52.63596543839642 2.429733979758519 0.8099113265861708 0.8099113265861708 0.0 0.0 0.6952778540174372 0.7187410560924617
32 8.866428788780794 50.794037000644686 46.121160493692905 2.454153212225166 0.8180510707417191 0.8180510707417191 0.0 0.0 0.6353234605105568 0.7722461398575527
33 32.60854919533699 10.577049071369814 22.822236054724346 2.4788178620581793 0.8262726206860562 0.8262726206860562 0.0 0.0 0.6411270229476993 0.7674347792784871
34 1.0677611638570994 24.013437015045497 46.933191215712974 2.5037303957430805 0.8345767985810248 0.8345767985810248 0.0 -0.0 0.7453722743584635 0.6666484625480594
35 34.57239771395148 38.81939446351636 44.12236656144038 2.5288933045540087 0.8429644348513398 0.8429644348513398 0.0 -0.0 0.7109313362059317 0.7032614273514853
36 26.223692949972516 27.497416329303068 20.219955727738565 2.5543091048028073 0.8514363682675999 0.8514363682675999 0.0 -0.0 0.739632735620696 0.6730107104632479
37 7.937135164812805 49.18011622185591 8.642195382742987 2.5799803380906945 0.8599934460302301 0.8599934460302301 0.0 0.0 0.5163603530767541 0.8563714064414165
38 15.572840767283925 60.56731310322355 12.57381906298928 2.6059095715623632 0.8686365238541175 0.8686365238541175 0.0 0.0 0.5145463711011363 0.8574625542766586
39 12.536118921836275 24.017260338374793 12.241939697744364 2.632099398162798 0.8773664660542662 0.8773664660542662 0.0 0.0 0.5880831456971182 0.8088004783300898
40 54.361785204870046 38.56459194686693 18.56491890552643 2.658552436896482 0.8861841456321566 0.8861841456321566 0.0 -0.0 0.8608342640850161 0.5088854191045453
41 46.63773921497925 11.329189168850487 0.13558152036272209 2.685271333089308 0.8950904443631056 0.8950904443631056 0.0 0.0 0.5813114541301716 0.8136811373609846
42 2.8956898691841295 5.93947132549448 35.3540854099864 2.712258758653185 0.904086252884395 0.904086252884395 0.0 0.0 0.6858728758951139 0.7277213739552836
43 52.809851156354824 1.7034244363153954 29.537828310184214 2.7395174123531394 0.9131724707843876 0.9131724707843876 0.0 -0.0 0.8971229945165649 0.4417808650333688
44 41.10505753448821 20.197764231416755 39.84684031009791 2.7670500200772943 0.9223500066924297 0.9223500066924297 0.0 -0.0 0.7662793896249596 0.6425075073771507
45 27.995644794973988 22.244325005304734 23.258809807640766 2.794859335109298 0.9316197783697651 0.9316197783697651 0.0 -0.0 0.8021859139948743 0.5970743332184094
46 13.526917520273898 42.89043971732901 14.380113602989095 2.822948138403909 0.9409827128013033 0.9409827128013033 0.0 0.0 0.6689296931602822 0.7433256793683982
47 53.35858342609795 18.15116578669166 20.866741739973754 2.8513192388647965 0.9504397462882657 0.9504397462882657 0.0 -0.0 0.8121614142020023 0.5834328044268712
48 49.07112020805306 6.912285844108034 23.90806316944156 2.8799754736257035 0.9599918245419021 0.9599918245419021 0.0 0.0 0.43861391052531945 0.8986756019241242
49 20.47589475302231 30.610670317428305 2.585513527370466 2.9089197083339324 0.9696399027779745 0.9696399027779745 0.0 -0.0 0.7611420715427216 0.6485851886434459
50 30.144774964544457 31.715109321381966 52.35955642210945 2.9381548374371125 0.9793849458123797 0.9793849458123797 0.0 0.0 0.5689873473401131 0.8223462765568174
51 6.899185047719859 28.54844433652883 41.64293006085383 2.967683784472533 0.9892279281575039 0.9892279281575039 0.0 -0.0 0.9816329176571261 0.1907794930592849
52 31.929825315695805 1.814426015324062 26.652611823692485 2.9975095023594407 0.9991698341198206 0.9991698341198206 0.0 -0.0 0.8312938914163103 0.5558331279205367
53 20.273585384343576 41.91329265828745 6.871342693068575 3.0276349736945325 1.009211657898177 1.009211657898177 0.0 0.0 0.4937832216878833 0.8695850332081013
54 28.01296508994933 46.05113918282731 36.79113023102736 3.058063211050033 1.0193544036833415 1.0193544036833415 0.0 -0.0 0.7425013715714329 0.6698445440656666
55 19.84680594473125 52.6983325001087 6.299799346954957 3.058063211050033 1.0193544036833415 1.0193544036833415 0.0 -0.0 0.899222239431846 0.4374921303419936
56 45.50008194862221 15.420685369696859 34.26831105884093 3.088797257275033 1.0295990857583506 1.0295990857583506 0.0 0.0 0.591041689671776 0.8066410112744902
57 50.93694765821332 4.643657820450898 46.271314242845044 3.088797257275033 1.0295990857583506 1.0295990857583506 0.0 0.0 0.6906372933410847 0.7232013060320761
58 45.999523064953806 53.21700439039677 27.606841110109833 3.11984018579977 1.0399467285999198 1.0399467285999198 0.0 -0.0 0.9778925487455288 0.20910801779935065
59 30.954630584150294 50.76388904606401 36.79418596409027 3.11984018579977 1.0399467285999198 1.0399467285999198 0.0 -0.0 0.8334397726994561 0.5526103014626843
60 34.6106834299698 28.415357787718957 10.352207592794233 3.151195100942961 1.050398366980987 1.050398366980987 0.0 -0.0 0.8251393648538317 0.5649292243888745
61 14.611642626886919 26.329763026524965 34.82168334015603 3.151195100942961 1.050398366980987 1.050398366980987 0.0 -0.0 0.8342848482439009 0.5513336485202505
62 3.275289594399549 41.029670149662905 23.72172720584675 3.182865138222233 1.06095504607408 1.06095504607408 0.0 0.0 0.6993489688984815 0.7147803996337831
63 34.89242724549788 48.0852632594165 1.8293677894292832 3.182865138222233 1.06095504607408 1.06095504607408 0.0 0.0 0.6638694557235675 0.747848477806363
64 28.526257057233714 0.6093648643785585 52.616599017587276 3.2148534646677756 1.0716178215559167 1.0716178215559167 0.0 0.0 0.5469534661185369 0.8371630103515794
65 18.671088739084567 5.720053011646556 12.40144889181034 3.2148534646677756 1.0716178215559167 1.0716178215559167 0.0 0.0 0.534266604389083 0.8453160328744268
66 42.588194295738944 14.627428584366116 19.854262404025643 3.247163279138796 1.0823877597129314 1.0823877597129314 0.0 0.0 0.49259387534365895 0.8702593142126752
67 59.969266377464784 57.54358442424449 16.008129256300652 3.247163279138796 1.0823877597129314 1.0823877597129314 0.0 -0.0 0.7991221049958454 0.6011687461162707
68 29.42116676267908 13.874572518327563 4.102531281222341 3.279797812643688 1.0932659375478984 1.0932659375478984 0.0 -0.0 0.8113628171424923 0.5845428803420658
69 45.41987329422569 56.24379205793991 53.75489211739761 3.279797812643688 1.0932659375478984 1.0932659375478984 0.0 0.0 0.69974083585519 0.7143967823532522
70 35.767480618921084 55.88661947802126 24.942261507224977 3.3127603286630656 1.1042534428876831 1.1042534428876831 0.0 -0.0 0.9226100212719841 0.3857340387475665
71 38.43375626985136 14.309310912810803 33.812596020504095 3.3127603286630656 1.1042534428876831 1.1042534428876831 0.0 -0.0 0.8908476943010929 0.4543020862360491
72 60.841362440497015 45.55392146173885 7.25674484575292 3.3460541234759456 1.1153513744919736 1.1153513744919736 0.0 -0.0 0.9180976465577227 0.39635427509384946
73 1.3045870734577414 4.387465505325406 44.08197149406287 3.3460541234759456 1.1153513744919736 1.1153513744919736 0.0 0.0 0.6852526383261238 0.7283054453092375
74 10.604080585089896 32.63203465705291 15.71382105429338 3.379682526489535 1.1265608421631816 1.1265608421631816 0.0 0.0 0.6622208999947843 0.7493086677799063
75 53.33375280309595 13.814186425282013 28.56688622371242 3.379682526489535 1.1265608421631816 1.1265608421631816 0.0 0.0 0.6669694181073614 0.7450850926636016
76 2.569329839450287 21.63251093199904 13.85881110615407 3.4136489005721846 1.1378829668573993 1.1378829668573993 0.0 0.0 0.4849872773235938 0.8745212066235144
77 12.59287542131736 10.154269261070816 3.664490524440163 3.4136489005721846 1.1378829668573993 1.1378829668573993 0.0 -0.0 0.724549744492829 0.6892225096116464
78 6.1761925680256216 6.313174613647176 4.706094267720999 3.447956642389625 1.1493188807965418 1.1493188807965418 0.0 0.0 0.646327957303847 0.7630597431442944
79 59.35387902468727 20.991414506678627 18.86655769967019 3.447956642389625 1.1493188807965418 1.1493188807965418 0.0 0.0 0.4210348644808628 0.9070444547493698
80 57.41937205709862 8.404764226494352 19.768104967620346 3.4826091827446057 1.1608697275815358 1.1608697275815358 0.0 0.0 0.5786941501693628 0.8155446527074768
81 10.265878093600369 11.668219986078283 47.66300012198181 3.4826091827446057 1.1608697275815358 1.1608697275815358 0.0 0.0 0.683142879342022 0.730284743373632
82 19.519206943371337 58.51658510162569 0.5479144969216558 3.5176099869200397 1.1725366623066773 1.1725366623066773 0.0 0.0 0.3480344086077516 0.937481760049257
83 24.61773082538928 5.303661759394311 56.67630799787564 3.5176099869200397 1.1725366623066773 1.1725366623066773 0.0 -0.0 0.8280938516825816 0.560589486884571
84 31.067451378504312 38.922165118129655 23.431117865994352 3.5529625550255473 1.184320851675183 1.184320851675183 0.0 -0.0 0.8521868438699086 0.5232375972109076
85 10.620697296243694 34.83953863461729 25.774080832043662 3.5529625550255473 1.184320851675183 1.184320851675183 0.0 0.0 0.2683204071818837 0.9633297250109892
86 12.34293742332579 24.145613420894605 0.3144448666449713 3.5886704223473207 1.1962234741157824 1.1962234741157824 0.0 0.0 0.5717525694490604 0.8204261083902665
87 22.160695509748887 8.175571457444324 39.29627239017672 3.5886704223473207 1.1962234741157824 1.1962234741157824 0.0 -0.0 0.7407334016199733 0.6717990977401677
88 17.387215585408022 27.16863377593458 55.56010815706809 3.6247371597019247 1.2082457199006391 1.2082457199006391 0.0 0.0 0.6524446383875427 0.7578363898885753
89 10.653569877442608 30.435994774813654 27.975960408384903 3.6247371597019247 1.2082457199006391 1.2082457199006391 0.0 0.0 0.3815125934194192 0.9243636411404275
90 25.128192793328704 56.71721597538851 48.51460338732337 3.6611663737931184 1.2203887912643747 1.2203887912643747 0.0 -0.0 0.7664413141092511 0.642314340511314
91 28.036333321002214 10.727374203352689 39.11753650177938 3.6611663737931184 1.2203887912643747 1.2203887912643747 0.0 -0.0 0.7164030651197486 0.6976866404676452
92 58.65806107695551 37.338259156377646 38.38734428214285 3.6979617075726803 1.2326539025242245 1.2326539025242245 0.0 0.0 0.3159382626609752 0.9487797500931208
93 17.57319514438612 42.372155659340024 36.6431199523759 3.6979617075726803 1.2326539025242245 1.2326539025242245 0.0 -0.0 0.807675111463051 0.5896277760783901
94 45.27905073924954 12.481973058223396 51.185051308282866 3.7351268406046594 1.2450422802015513 1.2450422802015513 0.0 0.0 0.5856043209472178 0.8105970511221638
95 32.77517593748417 10.273196399870205 52.07790400584948 3.7351268406046594 1.2450422802015513 1.2450422802015513 0.0 -0.0 0.8283891439806925 0.5601530381377355
96 35.50061874687395 15.440516298249374 43.67295780704319 3.7726654894332663 1.2575551631444293 1.2575551631444293 0.0 0.0 0.6380161188650698 0.7700230074928626
97 19.231204409618762 11.462928649278622 21.647670514734497 3.7726654894332663 1.2575551631444293 1.2575551631444293 0.0 0.0 0.5652655734899162 0.8249089837231233
98 24.822216337380265 17.213687962213605 37.60087702831242 3.8105814079547433 1.2701938026515898 1.2701938026515898 0.0 -0.0 0.9884337224668884 0.15165347437579585
99 50.81286283645518 32.66333630942332 7.485963221539869 3.8105814079547433 1.2701938026515898 1.2701938026515898 0.0 0.0 0.644584962479319 0.7645326848117973
100 34.88681612435742 27.311380925515756 48.30146973691891 3.8488783877925505 1.2829594625975083 1.2829594625975083 0.0 -0.0 0.7665764345255346 0.6421530736748979
101 29.850023157762916 34.58134658844927 2.7224348887171685 3.8488783877925505 1.2829594625975083 1.2829594625975083 0.0 -0.0 0.7486465484609144 0.6629693397718779
102 42.820181183225586 50.26407101824818 8.228042524595006 3.8875602586765017 1.295853419558832 1.295853419558832 0.0 -0.0 0.764238184631255 0.644934102952793
103 32.76762624435358 33.35939354958664 20.32373747146125 3.8875602586765017 1.295853419558832 1.295853419558832 0.0 -0.0 0.7262700822056904 0.6874094614514261
104 51.52838076349093 45.797981589145834 35.83640431785629 3.9266308888259864 1.3088769629419847 1.3088769629419847 0.0 0.0 0.6864264585310771 0.7271992278794606
105 17.327646540024094 5.027353577116782 24.574953564793862 3.9266308888259864 1.3088769629419847 1.3088769629419847 0.0 -0.0 0.8498704758576332 0.5269916263713497
106 12.282097854102803 58.1909481447106 50.97492608209044 3.966094185336527 1.3220313951121763 1.3220313951121763 0.0 -0.0 0.793590538753224 0.6084521811953406
107 41.96209395012566 58.30130953087661 21.038529702027585 3.966094185336527 1.3220313951121763 1.3220313951121763 0.0 -0.0 0.8299364941277125 0.5578578812878792
108 59.18320489600492 60.127313011474136 6.887815378299834 4.005954094570714 1.3353180315235624 1.3353180315235624 0.0 -0.0 0.7596155095013813 0.650372414640225
109 22.303954297298375 59.300308650286844 35.99976442612511 4.005954094570714 1.3353180315235624 1.3353180315235624 0.0 -0.0 0.746179639226726 0.6657446552571586
110 28.13766603769996 58.29396598159514 43.93213418795518 4.046214602552648 1.3487382008508728 1.3487382008508728 0.0 -0.0 0.7434755474029917 0.6687631198068729
111 34.03064227110553 45.853639851033414 16.038061213175794 4.046214602552648 1.3487382008508728 1.3487382008508728 0.0 -0.0 0.7635489887521677 0.6457499065238353
112 46.8788861690167 57.039096929179756 40.9598663360161 4.086879735366673 1.3622932451222343 1.3622932451222343 0.0 -0.0 0.925703395166632 0.3782502137170186
113 12.835125200177265 16.757235165768776 28.834224928604907 4.086879735366673 1.3622932451222343 1.3622932451222343 0.0 -0.0 0.7476030998596368 0.6641457709571461
114 52.888294001950854 3.9792119435012454 36.02169839819861 4.127953559560013 1.3759845198533383 1.3759845198533383 0.0 -0.0 0.7095009508808979 0.7047044775642494
115 26.897848367562815 30.18910304628145 1.3466588592857303 4.127953559560013 1.3759845198533383 1.3759845198533383 0.0 0.0 0.692332939305712 0.7215782016887105
116 18.562292218921847 40.431347138328825 48.413289947990314 4.169440182549281 1.3898133941830915 1.3898133941830915 0.0 0.0 0.4838188577050026 0.8751681626573412
117 54.38267147731116 43.7762519970514 44.24862144326437 4.169440182549281 1.3898133941830915 1.3898133941830915 0.0 0.0 0.4072390243389004 0.9133216175343166
118 47.77107811120014 60.259946712492685 4.24120653917024 4.211343753031336 1.4037812510104468 1.4037812510104468 0.0 -0.0 0.9854258972554679 0.17010526452245991
119 22.350770024035604 51.70475516769336 1.3739587637184147 4.211343753031336 1.4037812510104468 1.4037812510104468 0.0 0.0 0.693566054094668 0.720393037589587
120 49.31087813715104 58.51747511489433 35.65220771211763 4.253668461398166 1.4178894871327234 1.4178894871327234 0.0 -0.0 0.8546373086497397 0.5192254526349123
121 60.88358974513089 12.527725411245944 1.852204561959331 4.253668461398166 1.4178894871327234 1.4178894871327234 0.0 -0.0 0.738138054050796 0.6746496966293722
122 45.08865344958128 41.542942137783754 44.160047085541635 4.296418540155905 1.4321395133853025 1.4321395133853025 0.0 0.0 0.30497028615780525 0.9523618663936657
123 50.594477564450656 34.63772416141586 44.614949749352505 4.296418540155905 1.4321395133853025 1.4321395133853025 0.0 -0.0 0.8240326158671573 0.5665423620411186
124 35.247356759234194 1.2779517656284471 4.548007614569135 4.339598264348004 1.446532754782661 1.446532754782661 0.0 -0.0 0.7351480847541838 0.6779065521753388
125 32.97307870591667 50.90083923886177 39.55901550820785 4.339598264348004 1.446532754782661 1.446532754782661 0.0 0.0 0.6354145425399089 0.7721711980699606
126 18.438682208960213 23.709900201443 35.99257524807072 4.3832119519828625 1.461070650660944 1.461070650660944 0.0 -0.0 0.9631928649301144 0.2688112812880415
127 59.724706541282885 35.6414767493224 45.78248158994181 4.3832119519828625 1.461070650660944 1.461070650660944 0.0 0.0 0.6645731125154195 0.7472232451694524
128 18.30998352308833 47.89207002965427 47.94782927817343 4.4272639644655705 1.475754654821855 1.475754654821855 0.0 -0.0 0.837305869343264 0.5467347447925007
129 57.97720989300329 23.982520271674737 48.74285811978602 4.4272639644655705 1.475754654821855 1.475754654821855 0.0 0.0 0.6718759690179156 0.7406636768846148
130 27.50376550844657 39.56524776766865 10.942684876205577 4.471758707034184 1.490586235678058 1.490586235678058 0.0 -0.0 0.8172568989423515 0.5762735124323614
131 9.617106344162572 23.327498876913072 50.41111131937741 4.471758707034184 1.490586235678058 1.490586235678058 0.0 0.0 0.5650588956672867 0.8250505708302167
132 37.40670301878676 25.003480479330918 1.6866345965322567 4.516700629199966 1.5055668763999805 1.5055668763999805 0.0 0.0 0.5632303093681869 0.8262999568008076
133 6.652232932296316 50.57874038167449 40.52924763180267 4.516700629199966 1.5055668763999805 1.5055668763999805 0.0 0.0 0.7047758212396541 0.7094300823872436
134 44.41577035905788 21.7843367056603 42.02776961653019 4.5620942251925936 1.520698075064188 1.520698075064188 0.0 -0.0 0.7457546235329385 0.6662207152882933
135 5.283276290799538 50.19668222632057 1.3580789950950296 4.5620942251925936 1.520698075064188 1.520698075064188 0.0 0.0 0.5807371118896761 0.8140911539097067
136 18.11639126506948 50.475231269338124 60.11246916321757 4.607944034409498 1.5359813448031685 1.5359813448031685 0.0 -0.0 0.7765636880913803 0.6300387593933514
137 47.428892904872406 26.13023061225506 26.134692570243583 4.607944034409498 1.5359813448031685 1.5359813448031685 0.0 -0.0 0.9207785641385271 0.39008567754147583
138 40.50280866190311 40.701983299158954 9.96215780491627 4.654254641869777 1.5514182139565977 1.5514182139565977 0.0 0.0 0.5933031767685688 0.8049790931672228
139 54.27524731727555 7.957237010039277 7.707309910571064 4.654254641869777 1.5514182139565977 1.5514182139565977 0.0 0.0 0.36293328461656904 0.9318151270061183
140 14.034385171045145 45.10739623635702 22.142178423125667 4.70103067867288 1.5670102262242869 1.5670102262242869 0.0 0.0 0.5657838974393875 0.8245535649054563
141 58.14391467406089 36.03496645973705 2.109172824444176 4.70103067867288 1.5670102262242869 1.5670102262242869 0.0 0.0 0.5898626798291705 0.8075035720941112
142 2.7643093009043787 37.217330266745606 8.696696724601418 4.748276822461308 1.5827589408204437 1.5827589408204437 0.0 0.0 0.494526605223718 0.8691624915548904
143 37.28848537652953 11.019996940410568 0.819255020012703 4.748276822461308 1.5827589408204437 1.5827589408204437 0.0 0.0 0.6621201748514545 0.7493976741721844
144 19.130247066751675 23.31918476091972 43.05999646419258 4.795997797888919 1.598665932629647 1.598665932629647 0.0 -0.0 0.8358120424685423 0.5490156916378287
145 59.844454895097186 49.189141004172576 17.511395548835043 4.795997797888919 1.598665932629647 1.598665932629647 0.0 -0.0 0.7380766977143534 0.6747168208152773
146 30.395333837230137 51.12788282153937 50.426669233971126 4.844198377093027 1.6147327923643429 1.6147327923643429 0.0 0.0 0.5600689403365469 0.8284460043179022
147 38.60034573972335 26.335064694386173 44.72288103010811 4.844198377093027 1.6147327923643429 1.6147327923643429 0.0 -0.0 0.8053653384335279 0.5927787712543771
148 11.95862343143529 43.34236253975364 49.199038550374986 4.892883380171667 1.6309611267238764 1.6309611267238764 0.0 -0.0 0.9475491048281723 0.31961022189430877
149 1.219222702796847 30.904921779640937 24.96901223662418 4.892883380171667 1.6309611267238764 1.6309611267238764 0.0 -0.0 0.8855269061838191 0.46458809543994295
150 42.27637527660454 5.055479073659656 4.494128799215308 4.942057675665747 1.6473525585552509 1.6473525585552509 0.0 -0.0 0.8997163709941051 0.43647502994466686
151 29.360550255463547 41.54247815213064 47.02154319178469 4.942057675665747 1.6473525585552509 1.6473525585552509 0.0 0.0 0.6949034215940625 0.7191030765174521
152 50.042763180269716 48.581248118563394 7.017818015210814 4.991726181045769 1.663908727015246 1.663908727015246 0.0 0.0 0.6496096252583186 0.7602679361723385
153 28.646424511656885 58.114576006342325 6.158477069576507 4.991726181045769 1.663908727015246 1.663908727015246 0.0 0.0 0.6980264017745981 0.7160720232110785
154 50.814246216785904 17.20579460733831 3.881974095575425 5.04189386320368 1.6806312877345657 1.6806312877345657 0.0 -0.0 0.9126309719920443 0.4087844284716046
155 12.473424126699822 44.27105734935226 3.756115061629263 5.04189386320368 1.6806312877345657 1.6806312877345657 0.0 0.0 0.34897032679986184 0.9371337743423815
156 18.53468558360165 35.12598381623493 54.324080333829535 5.092565738949504 1.6975219129831798 1.6975219129831798 0.0 0.0 0.6995675014656925 0.7145665195718649
157 23.913173827378316 42.350202493008744 44.92489239688331 5.092565738949504 1.6975219129831798 1.6975219129831798 0.0 0.0 0.63565327495599 0.7719746848425306
158 44.73757020737333 59.6634210737975 37.10737429461532 5.143746875513064 1.714582291837684 1.714582291837684 0.0 -0.0 0.7426985308561326 0.6696259345814963
159 7.043719882165024 2.265454138766046 14.57471185445862 5.143746875513064 1.714582291837684 1.714582291837684 0.0 0.0 0.4891044501540252 0.8722252213961303
160 54.92312321499453 49.13400870741857 18.341855942410525 5.195442391050652 1.7318141303502146 1.7318141303502146 0.0 0.0 0.6466947184788655 0.7627489371290798
161 32.139638789094924 17.477715891531076 37.661245589650896 5.195442391050652 1.7318141303502146 1.7318141303502146 0.0 0.0 0.6377575578887067 0.7702371695496348
162 13.961306074426332 6.493251770985722 21.519397224033398 5.247657455156876 1.7492191517189617 1.7492191517189617 0.0 0.0 0.6701572236966805 0.7422191694689361
163 36.49486200304668 43.07499601931185 28.803125922911434 5.247657455156876 1.7492191517189617 1.7492191517189617 0.0 -0.0 0.7797338016261434 0.6261111711203069
164 57.86311764281262 38.370274649928966 34.376869988899536 5.300397289381666 1.766799096460555 1.766799096460555 0.0 0.0 0.6966086930688543 0.7174512727293072
165 27.685361400171967 28.110193733725783 46.29610370573448 5.300397289381666 1.766799096460555 1.766799096460555 0.0 -0.0 0.8994069955971553 0.43711217813153935
9_T 48.572369655379575 -0.42168414297329804 55.763928757799086 1.9499071928044056 0.6499690642681366 0.6499690642681366 0.0 -0.0 0.7176002965020949 0.6964551776389529
10_T 22.07017924768187 -0.49268599325426266 14.203627970443454 1.9695040858906958 0.6565013619635695 0.6565013619635695 0.0 0.0 0.38534345666417513 0.9227732226317065
12_T 9.107348593400456 -0.28542833718423566 20.166124070223237 2.0092907076138737 0.6697635692046188 0.6697635692046188 0.0 0.0 0.2746680171135514 0.9615391205639581
38_T 15.572840767283925 -0.33268689677645114 12.57381906298928 2.6059095715623632 0.8686365238541175 0.8686365238541175 0.0 0.0 0.5145463711011363 0.8574625542766586
41_Ba 46.63773921497925 11.329189168850487 61.03558152036272 2.685271333089308 0.8950904443631056 0.8950904443631056 0.0 0.0 0.5813114541301716 0.8136811373609846
43_B 52.809851156354824 62.60342443631539 29.537828310184214 2.7395174123531394 0.9131724707843876 0.9131724707843876 0.0 -0.0 0.8971229945165649 0.4417808650333688
52_B 31.929825315695805 62.71442601532406 26.652611823692485 2.9975095023594407 0.9991698341198206 0.9991698341198206 0.0 -0.0 0.8312938914163103 0.5558331279205367
64_B 28.526257057233714 61.509364864378554 52.616599017587276 3.2148534646677756 1.0716178215559167 1.0716178215559167 0.0 0.0 0.5469534661185369 0.8371630103515794
67_L -0.9307336225352145 57.54358442424449 16.008129256300652 3.247163279138796 1.0823877597129314 1.0823877597129314 0.0 -0.0 0.7991221049958454 0.6011687461162707
72_L -0.05863755950298355 45.55392146173885 7.25674484575292 3.3460541234759456 1.1153513744919736 1.1153513744919736 0.0 -0.0 0.9180976465577227 0.39635427509384946
79_L -1.546120975312732 20.991414506678627 18.86655769967019 3.447956642389625 1.1493188807965418 1.1493188807965418 0.0 0.0 0.4210348644808628 0.9070444547493698
82_FT 19.519206943371337 -2.383414898374312 0.5479144969216558 3.5176099869200397 1.1725366623066773 1.1725366623066773 0.0 0.0 0.3480344086077516 0.937481760049257
82_BT 19.519206943371337 -2.383414898374312 61.447914496921655 3.5176099869200397 1.1725366623066773 1.1725366623066773 0.0 0.0 0.3480344086077516 0.937481760049257
82_BB 19.519206943371337 58.51658510162569 61.447914496921655 3.5176099869200397 1.1725366623066773 1.1725366623066773 0.0 0.0 0.3480344086077516 0.937481760049257
86_Ba 12.34293742332579 24.145613420894605 61.21444486664497 3.5886704223473207 1.1962234741157824 1.1962234741157824 0.0 0.0 0.5717525694490604 0.8204261083902665
92_L -2.2419389230444864 37.338259156377646 38.38734428214285 3.6979617075726803 1.2326539025242245 1.2326539025242245 0.0 0.0 0.3159382626609752 0.9487797500931208
106_T 12.282097854102803 -2.7090518552893954 50.97492608209044 3.966094185336527 1.3220313951121763 1.3220313951121763 0.0 -0.0 0.793590538753224 0.6084521811953406
107_T 41.96209395012566 -2.5986904691233903 21.038529702027585 3.966094185336527 1.3220313951121763 1.3220313951121763 0.0 -0.0 0.8299364941277125 0.5578578812878792
108_T 59.18320489600492 -0.7726869885258623 6.887815378299834 4.005954094570714 1.3353180315235624 1.3353180315235624 0.0 -0.0 0.7596155095013813 0.650372414640225