ITEM: TIMESTEP
734
ITEM: NUMBER OF ATOMS
269
ITEM: BOX BOUNDS ff ff ff
0 60.9
60.9 0
60.9 0
ITEM: ATOMS id x y z AsphericalShapeX AsphericalShapeY AsphericalShapeZ OrientationX OrientationY OrientationZ OrientationW
1 45.81326392041996 50.41272477915981 21.466450230083137 5.188209939830444 1.7294033132768198 1.7294033132768198 0.0 -0.0 0.7863642711635499 0.6177630881150306
2 4.1859925094635555 17.467597967217717 22.195287569729096 5.240352316593456 1.7467841055311135 1.7467841055311135 0.0 -0.0 0.8896314041555925 0.4566792799549252
3 18.3585620902209 11.744448574327807 55.29042694404606 5.293018732955005 1.7643395776517192 1.7643395776517192 0.0 0.0 0.631512325711268 0.7753658378305981
4 17.9952914367885 46.7896948585462 43.381037477703806 5.34621445560088 1.7820714852003343 1.7820714852003343 0.0 0.0 0.5765741652112841 0.8170448164029381
5 37.73136973894015 35.69978079353236 21.291457763885806 5.399944804147538 1.7999816013825256 1.7999816013825256 0.0 -0.0 0.8873914294477543 0.4610167577677315
6 21.412514502401013 8.835141543390009 28.06606894884157 5.45421515167451 1.8180717172248426 1.8180717172248426 0.0 0.0 0.643710445538684 0.7652691437033046
7 18.959849656774097 55.11481261429953 39.23181761017083 5.509030925261803 1.8363436417539158 1.8363436417539158 0.0 -0.0 0.7603958793842515 0.6494598575858641
8 40.18048606417919 33.625191010014454 14.656614759777995 5.564397606532477 1.8547992021775423 1.8547992021775423 0.0 -0.0 0.7854601334426244 0.6189122545016335
9 50.3130970924074 6.23926877741901 51.70624524002843 5.620320732200954 1.8734402440669862 1.8734402440669862 0.0 -0.0 0.7176002965020949 0.6964551776389529
10 48.71471964001932 9.446010619095027 14.039880880684027 5.676805894626203 1.892268631542072 1.892268631542072 0.0 0.0 0.38534345666417513 0.9227732226317065
11 17.728720631330674 36.98872889614723 60.79199404568799 5.733858742371546 1.911286247457202 1.911286247457202 0.0 0.0 0.49983922045674145 0.866118209999765
12 11.121537658419907 16.29200714478941 24.620729784577637 5.7914849807693 1.930494993589818 1.930494993589818 0.0 0.0 0.2746680171135514 0.9615391205639581
13 9.92192725588313 49.42575231604758 13.817820364428005 5.849690372491557 1.9498967908305178 1.9498967908305178 0.0 -0.0 0.7886508549344257 0.614841303924191
14 8.299632133783794 37.61642488771958 21.96817604518262 5.9084807381256805 1.9694935793752215 1.9694935793752215 0.0 -0.0 0.7750680292508737 0.6318777967559605
15 28.313736645592876 46.09072361495629 20.27477676423517 5.96786195675743 1.9892873189191984 1.9892873189191984 0.0 0.0 0.6340811782098568 0.7732664866913604
16 19.107784323412083 31.796225291610828 49.7367967806538 6.027839966558264 2.009279988852719 2.009279988852719 0.0 -0.0 0.7629176367612683 0.6464956918020424
17 19.34534044796487 11.091340496349213 33.11358917466909 6.088420765378747 2.0294735884595516 2.0294735884595516 0.0 0.0 0.6579222258448839 0.7530858813836
18 35.93428527940038 30.150229252670766 18.25484469136294 6.14961041134942 2.049870137116482 2.049870137116482 0.0 0.0 0.506211649243881 0.8624092799650234
19 15.016812890984504 7.760801180965733 35.333751638911025 6.2114150234860475 2.0704716744953564 2.0704716744953564 0.0 0.0 0.6434542777811493 0.7654845474633303
20 29.034803995543868 47.12067325326692 35.62014220054046 6.2738407823011695 2.0912802607671 2.0912802607671 0.0 -0.0 0.7861857262579329 0.6179902942832407
21 46.09763719118563 16.849102952900907 47.111501635204775 6.33689393042273 2.112297976807584 2.112297976807584 0.0 0.0 0.6069811502172251 0.7947162281474907
22 14.836411671224457 10.113058867957976 29.926561307019764 6.400580773218145 2.133526924406038 2.133526924406038 0.0 -0.0 0.8910647246123514 0.45387625687131333
23 44.87267933679938 8.80463184650107 48.5343114332453 6.464907679424675 2.154969226474943 2.154969226474943 0.0 -0.0 0.7582829367961579 0.651925599868416
24 21.09715679053738 14.74318201243671 44.47560925100555 6.529881081786601 2.176627027262231 2.176627027262231 0.0 0.0 0.5255054740936084 0.8507902189715464
25 12.13002880876184 5.543508020259502 54.89824860743537 6.595507477698508 2.198502492566146 2.198502492566146 0.0 0.0 0.6637035342538496 0.7479957343587923
26 2.9606352322178324 53.664907111823 31.534227816591667 6.661793429854194 2.2205978099513763 2.2205978099513763 0.0 0.0 0.5361151400853296 0.8441448670526212
27 4.2545458260746365 32.96033710695841 31.48940515909267 6.728745566904445 2.2429151889681163 2.2429151889681163 0.0 -0.0 0.7297620279401082 0.6837012378054764
28 12.843470332752455 33.64183672139029 29.75017637896384 6.796370584118703 2.2654568613728525 2.2654568613728525 0.0 -0.0 0.9828164757017253 0.18458541407500267
29 46.03519818080103 25.634151686556265 27.601033302074192 6.86467524405504 2.2882250813516958 2.2882250813516958 0.0 -0.0 0.8740853421614372 0.4857723897243679
30 21.979635362982886 58.394092154632595 22.500780993828425 6.933666377236336 2.3112221257454606 2.3112221257454606 0.0 -0.0 0.8433777540022546 0.5373210995802349
31 58.48877576770592 40.78861035923496 31.031127826506392 7.003350882833312 2.3344502942778327 2.3344502942778327 0.0 0.0 0.6952778540174372 0.7187410560924617
32 53.58807849588466 37.58606604178904 33.862953309073326 7.073735729354952 2.357911909784998 2.357911909784998 0.0 0.0 0.6353234605105568 0.7722461398575527
33 28.899541749632277 17.409432853031838 22.882997299176484 7.144827955344242 2.3816093184480294 2.3816093184480294 0.0 0.0 0.6411270229476993 0.7674347792784871
34 19.91269335977835 14.881202824129726 23.348492336942282 7.21663467008293 2.4055448900277066 2.4055448900277066 0.0 -0.0 0.7453722743584635 0.6666484625480594
35 22.358998618408506 38.98146108101396 37.306477024307405 7.289163054302648 2.429721018100935 2.429721018100935 0.0 -0.0 0.7109313362059317 0.7032614273514853
36 39.009178258076155 4.230741557902871 59.60572595328932 7.362420360902131 2.4541401203007736 2.4541401203007736 0.0 -0.0 0.739632735620696 0.6730107104632479
37 26.662286053575432 49.79628673143791 26.805029998971424 7.436413915673267 2.4788046385577704 2.4788046385577704 0.0 0.0 0.5163603530767541 0.8563714064414165
38 16.967125844789436 11.338638648488388 16.89355790589203 7.511151118032781 2.503717039344206 2.503717039344206 0.0 0.0 0.5145463711011363 0.8574625542766586
39 11.567727543452968 41.00521783164375 25.58025817291343 7.586639441763357 2.5288798139211193 2.5288798139211193 0.0 0.0 0.5880831456971182 0.8088004783300898
40 57.24370991368882 15.135509110939582 12.914641011865418 7.662886435760523 2.554295478586837 2.554295478586837 0.0 -0.0 0.8608342640850161 0.5088854191045453
41 7.30849287032744 15.524027594292566 31.459181255141697 7.739899724786828 2.57996657492895 2.57996657492895 0.0 0.0 0.5813114541301716 0.8136811373609846
42 14.214697332968969 54.80922564183214 40.30626598151302 7.817687010235493 2.6058956700785503 2.6058956700785503 0.0 0.0 0.6858728758951139 0.7277213739552836
43 60.26191932217831 41.85498562577881 40.352264844854865 7.896256070900313 2.632085356966728 2.632085356966728 0.0 -0.0 0.8971229945165649 0.4417808650333688
44 44.33829955580838 16.988922919147797 22.82272040978009 7.975614763752115 2.6585382545840224 2.6585382545840224 0.0 -0.0 0.7662793896249596 0.6425075073771507
45 47.54766738998231 58.246916983333875 40.903161025142055 8.055771024726944 2.6852570082422607 2.6852570082422607 0.0 -0.0 0.8021859139948743 0.5970743332184094
46 16.993898288318487 56.29676277686401 13.447159201092354 8.136732869517 2.7122442898390515 2.7122442898390515 0.0 0.0 0.6689296931602822 0.7433256793683982
47 48.52833748280355 33.292643133110005 17.559612206905957 8.218508394375018 2.739502798125 2.739502798125 0.0 -0.0 0.8121614142020023 0.5834328044268712
48 0.10951721226027557 47.180809797179265 13.582914119184771 8.301105776921158 2.7670352589737206 2.7670352589737206 0.0 0.0 0.43861391052531945 0.8986756019241242
49 24.43585422287179 60.297538624966975 9.00581224798476 8.384533276962538 2.794844425654154 2.794844425654154 0.0 -0.0 0.7611420715427216 0.6485851886434459
50 26.012159790890625 25.57689782298461 60.5117565181644 8.468799237318802 2.8229330791062313 2.8229330791062313 0.0 0.0 0.5689873473401131 0.8223462765568174
51 46.91964510784478 26.040331902397813 41.121897308549244 8.553912084656139 2.8513040282187334 2.8513040282187334 0.0 -0.0 0.9816329176571261 0.1907794930592849
52 35.63219901257545 9.589330895255305 20.548992786846565 8.639880330330325 2.8799601101100714 2.8799601101100714 0.0 -0.0 0.8312938914163103 0.5558331279205367
53 7.929535346167757 53.56608302887742 3.345182622673264 8.72671257123717 2.9089041904124424 2.9089041904124424 0.0 0.0 0.4937832216878833 0.8695850332081013
54 39.635123919033404 48.169729416491634 41.28460242745501 8.81441749067363 2.938139163557854 2.938139163557854 0.0 -0.0 0.7425013715714329 0.6698445440656666
55 21.958105382297504 39.008922269379205 17.23571043406448 8.81441749067363 2.938139163557854 2.938139163557854 0.0 -0.0 0.899222239431846 0.4374921303419936
56 42.14795855609042 3.3865775073593167 17.48905067311107 8.903003859204503 2.9676679530681915 2.9676679530681915 0.0 0.0 0.591041689671776 0.8066410112744902
57 51.141785535883585 60.61719391823314 54.33956168239472 8.903003859204503 2.9676679530681915 2.9676679530681915 0.0 0.0 0.6906372933410847 0.7232013060320761
58 26.696288588339645 41.051081365622046 31.48798016649447 8.992480535540535 2.9974935118468173 2.9974935118468173 0.0 -0.0 0.9778925487455288 0.20910801779935065
59 33.621956474957166 57.604133298157834 23.80677649801234 8.992480535540535 2.9974935118468173 2.9974935118468173 0.0 -0.0 0.8334397726994561 0.5526103014626843
60 51.87434413083467 22.629099777038846 54.25690318620299 9.08285646742401 3.0276188224746097 3.0276188224746097 0.0 -0.0 0.8251393648538317 0.5649292243888745
61 4.734868605177605 13.71321295567753 41.96224874851371 9.08285646742401 3.0276188224746097 3.0276188224746097 0.0 -0.0 0.8342848482439009 0.5513336485202505
62 18.298569768565958 8.76465531037919 39.735952937800455 9.17414069252299 3.0580468975076323 3.0580468975076323 0.0 0.0 0.6993489688984815 0.7147803996337831
63 32.585253802810364 9.179194161537117 47.763431677905025 9.17414069252299 3.0580468975076323 3.0580468975076323 0.0 0.0 0.6638694557235675 0.747848477806363
64 43.902779999191566 30.49271960105786 46.58085580270681 9.266342339336505 3.0887807797788565 3.0887807797788565 0.0 0.0 0.5469534661185369 0.8371630103515794
65 8.71289524000382 26.49203284864778 7.070081041711592 9.266342339336505 3.0887807797788565 3.0887807797788565 0.0 0.0 0.534266604389083 0.8453160328744268
66 23.33531910509439 56.97954533489391 32.26881464490728 9.359470628105854 3.1198235427019814 3.1198235427019814 0.0 0.0 0.49259387534365895 0.8702593142126752
67 54.57618389480908 14.933605861757684 7.583252136735617 9.359470628105854 3.1198235427019814 3.1198235427019814 0.0 -0.0 0.7991221049958454 0.6011687461162707
68 35.61846595261464 24.090017006504322 25.138172197148265 9.453534871737814 3.151178290579282 3.151178290579282 0.0 -0.0 0.8113628171424923 0.5845428803420658
69 34.41177248780555 12.888991838264882 54.57719943037747 9.453534871737814 3.151178290579282 3.151178290579282 0.0 0.0 0.69974083585519 0.7143967823532522
70 8.484283515806219 1.7252281401021476 17.03101291377629 9.54854447673466 3.1828481589116087 3.1828481589116087 0.0 -0.0 0.9226100212719841 0.3857340387475665
71 15.93453938525999 0.16656523871609608 24.696355490338032 9.54854447673466 3.1828481589116087 3.1828481589116087 0.0 -0.0 0.8908476943010929 0.4543020862360491
72 10.8712382589361 44.85972704226266 9.591424634956244 9.644508944136533 3.2148363147121954 3.2148363147121954 0.0 -0.0 0.9180976465577227 0.39635427509384946
73 39.070729789417996 39.87087417424742 29.85464471916933 9.644508944136533 3.2148363147121954 3.2148363147121954 0.0 0.0 0.6852526383261238 0.7283054453092375
74 42.241054158936834 20.700251879643172 16.423268914012375 9.741437870469882 3.2471459568232977 3.2471459568232977 0.0 0.0 0.6622208999947843 0.7493086677799063
75 51.859621426627974 38.863801768387425 45.44731759683044 9.741437870469882 3.2471459568232977 3.2471459568232977 0.0 0.0 0.6669694181073614 0.7450850926636016
76 3.4121803060447204 9.64073181452267 30.224473558920653 9.839340948708015 3.27978031623608 3.27978031623608 0.0 0.0 0.4849872773235938 0.8745212066235144
77 13.371048051449765 50.566663766052336 18.38024662006261 9.839340948708015 3.27978031623608 3.27978031623608 0.0 -0.0 0.724549744492829 0.6892225096116464
78 4.278992286167416 14.512932582350075 16.08790331682163 9.938227969240812 3.3127426564135614 3.3127426564135614 0.0 0.0 0.646327957303847 0.7630597431442944
79 1.6846698124100845 26.391674571589483 26.950354642817402 9.938227969240812 3.3127426564135614 3.3127426564135614 0.0 0.0 0.4210348644808628 0.9070444547493698
80 3.4092747236994083 60.75374319411042 23.975959902015195 10.03810882085216 3.3460362736173965 3.3460362736173965 0.0 0.0 0.5786941501693628 0.8155446527074768
81 57.68081230665372 55.95734189995333 24.51401399950456 10.03810882085216 3.3460362736173965 3.3460362736173965 0.0 0.0 0.683142879342022 0.730284743373632
82 12.311734007993266 57.95591170514121 6.101953305710049 10.138993491710714 3.3796644972368823 3.3796644972368823 0.0 0.0 0.3480344086077516 0.937481760049257
83 14.577557506445824 41.62164979933304 4.192456949131205 10.138993491710714 3.3796644972368823 3.3796644972368823 0.0 -0.0 0.8280938516825816 0.560589486884571
84 34.918385902416695 17.59328057218877 4.137375919784852 10.24089207036771 3.4136306901225892 3.4136306901225892 0.0 -0.0 0.8521868438699086 0.5232375972109076
85 19.01698610353604 47.08361614132319 25.493454956608474 10.24089207036771 3.4136306901225892 3.4136306901225892 0.0 0.0 0.2683204071818837 0.9633297250109892
86 6.889665465942941 57.19620803101424 56.10370721244156 10.34381474676576 3.4479382489218957 3.4479382489218957 0.0 0.0 0.5717525694490604 0.8204261083902665
87 8.552795260165148 60.696958182246824 44.03467391577443 10.34381474676576 3.4479382489218957 3.4479382489218957 0.0 -0.0 0.7407334016199733 0.6717990977401677
88 35.808118249513 45.60675696626935 55.09609313945227 10.447771813258491 3.482590604419479 3.482590604419479 0.0 0.0 0.6524446383875427 0.7578363898885753
89 38.804002940992945 15.906528792827336 44.17484721520923 10.447771813258491 3.482590604419479 3.482590604419479 0.0 0.0 0.3815125934194192 0.9243636411404275
90 19.726297393605016 17.28508356626305 50.341098552401434 10.55277366563918 3.517591221879696 3.517591221879696 0.0 -0.0 0.7664413141092511 0.642314340511314
91 28.812752273721276 2.7509304890900603 27.67824050237184 10.55277366563918 3.517591221879696 3.517591221879696 0.0 -0.0 0.7164030651197486 0.6976866404676452
92 55.32722302258865 18.047256644702895 36.432046955444385 10.658830804180198 3.5529436013933426 3.5529436013933426 0.0 0.0 0.3159382626609752 0.9487797500931208
93 17.618018862598877 25.126970573062657 32.15205760673554 10.658830804180198 3.5529436013933426 3.5529436013933426 0.0 -0.0 0.807675111463051 0.5896277760783901
94 52.52793665051162 14.032336962248147 45.7051365392091 10.765953834683984 3.5886512782279687 3.5886512782279687 0.0 0.0 0.5856043209472178 0.8105970511221638
95 42.2159560632793 60.43741158456451 53.447242433408064 10.765953834683984 3.5886512782279687 3.5886512782279687 0.0 -0.0 0.8283891439806925 0.5601530381377355
96 46.046694832102375 12.584306141710837 38.47662145178886 10.874153469543064 3.6247178231810415 3.6247178231810415 0.0 0.0 0.6380161188650698 0.7700230074928626
97 27.67914841333938 60.365065468249995 17.599079241866296 10.874153469543064 3.6247178231810415 3.6247178231810415 0.0 0.0 0.5652655734899162 0.8249089837231233
98 18.60908454056843 22.090800601273386 39.24033760626906 10.983440528810705 3.661146842936862 3.661146842936862 0.0 -0.0 0.9884337224668884 0.15165347437579585
99 50.04746585523132 35.039916548584806 7.669567924807113 10.983440528810705 3.661146842936862 3.661146842936862 0.0 0.0 0.644584962479319 0.7645326848117973
100 28.060631106248117 37.72542099494791 54.898236664707746 11.093825941284436 3.697941980428185 3.697941980428185 0.0 -0.0 0.7665764345255346 0.6421530736748979
101 19.030835062652947 19.59278746353636 60.56235459999407 11.093825941284436 3.697941980428185 3.697941980428185 0.0 -0.0 0.7486465484609144 0.6629693397718779
102 42.53378186362805 45.59048050763069 10.167734542376058 11.205320745596955 3.7351069151990313 3.7351069151990313 0.0 -0.0 0.764238184631255 0.644934102952793
103 25.739174269053194 43.29399125052799 0.7842326046190652 11.205320745596955 3.7351069151990313 3.7351069151990313 0.0 -0.0 0.7262700822056904 0.6874094614514261
104 50.93925403949412 60.37650664167502 47.11039122228587 11.317936091322014 3.7726453637739232 3.7726453637739232 0.0 0.0 0.6864264585310771 0.7271992278794606
105 20.728656764273683 43.486573793511795 11.366411430528368 11.317936091322014 3.7726453637739232 3.7726453637739232 0.0 -0.0 0.8498704758576332 0.5269916263713497
106 11.301713920846064 17.967189531604507 47.77233452727947 11.431683240087452 3.8105610800292165 3.8105610800292165 0.0 -0.0 0.793590538753224 0.6084521811953406
107 40.23577826396563 45.075290650217916 17.196554325537235 11.431683240087452 3.8105610800292165 3.8105610800292165 0.0 -0.0 0.8299364941277125 0.5578578812878792
108 51.69317585208647 40.50298520168668 55.82332675312143 11.546573566703673 3.8488578555678776 3.8488578555678776 0.0 -0.0 0.7596155095013813 0.650372414640225
109 59.45728297270245 38.899441083110126 4.101012931314099 11.546573566703673 3.8488578555678776 3.8488578555678776 0.0 -0.0 0.746179639226726 0.6657446552571586
110 41.345397714927465 19.610804949082983 52.26977315185792 11.662618560298643 3.8875395200995353 3.8875395200995353 0.0 -0.0 0.7434755474029917 0.6687631198068729
111 32.51237790942202 40.54675700592207 24.853778083452216 11.662618560298643 3.8875395200995353 3.8875395200995353 0.0 -0.0 0.7635489887521677 0.6457499065238353
112 55.57074111021452 59.82302729158458 17.387944783728106 11.779829825468605 3.926609941822949 3.926609941822949 0.0 -0.0 0.925703395166632 0.3782502137170186
113 19.247710941841568 7.776347853765705 8.575359671200347 11.779829825468605 3.926609941822949 3.926609941822949 0.0 -0.0 0.7476030998596368 0.6641457709571461
114 8.683191149161143 1.0492572741230544 35.91418325579444 11.898219083437896 3.9660730278125613 3.9660730278125613 0.0 -0.0 0.7095009508808979 0.7047044775642494
115 27.045517604975313 16.093697582591826 52.93774352221363 11.898219083437896 3.9660730278125613 3.9660730278125613 0.0 0.0 0.692332939305712 0.7215782016887105
116 13.439651022132376 32.49026129059831 54.674212865672104 12.017798173230258 4.0059327244101315 4.0059327244101315 0.0 0.0 0.4838188577050026 0.8751681626573412
117 45.105443031589395 39.312912117413 24.42718403808663 12.017798173230258 4.0059327244101315 4.0059327244101315 0.0 0.0 0.4072390243389004 0.9133216175343166
118 44.16560279902689 16.991934186676453 60.86692583771401 12.138579052855015 4.04619301761834 4.04619301761834 0.0 -0.0 0.9854258972554679 0.17010526452245991
119 34.22847788204505 28.62346861288847 60.852025165095654 12.138579052855015 4.04619301761834 4.04619301761834 0.0 0.0 0.693566054094668 0.720393037589587
120 26.36382751638028 23.857837722063373 30.02552601375328 12.26057380050081 4.086857933500196 4.086857933500196 0.0 -0.0 0.8546373086497397 0.5192254526349123
121 60.50861890921747 39.43492625823274 53.972128372380105 12.26057380050081 4.086857933500196 4.086857933500196 0.0 -0.0 0.738138054050796 0.6746496966293722
122 58.476829704818584 24.442225296692495 0.2379198687288561 12.383794615743536 4.127931538581164 4.127931538581164 0.0 0.0 0.30497028615780525 0.9523618663936657
123 44.44609072663127 43.950987886296225 52.12928681173123 12.383794615743536 4.127931538581164 4.127931538581164 0.0 -0.0 0.8240326158671573 0.5665423620411186
124 5.252839443590727 40.559596868369326 60.854191384033506 12.508253820767825 4.169417940255935 4.169417940255935 0.0 -0.0 0.7351480847541838 0.6779065521753388
125 0.0884014648742121 60.65059414838691 49.590702555691465 12.508253820767825 4.169417940255935 4.169417940255935 0.0 0.0 0.6354145425399089 0.7721711980699606
126 37.45785938029984 0.03255807728889494 43.39010410086355 12.63396386159771 4.211321287199261 4.211321287199261 0.0 -0.0 0.9631928649301144 0.2688112812880415
127 1.689958726966058 27.508479922320234 37.180481275752086 12.63396386159771 4.211321287199261 4.211321287199261 0.0 0.0 0.6645731125154195 0.7472232451694524
128 7.691473264684467 46.826678284110955 49.19604675228035 12.760937309341902 4.253645769780633 4.253645769780633 0.0 -0.0 0.837305869343264 0.5467347447925007
129 35.18175001649611 56.96781568100949 13.05826602715451 12.760937309341902 4.253645769780633 4.253645769780633 0.0 0.0 0.6718759690179156 0.7406636768846148
130 29.264111893923975 35.695481190423 15.353892013640024 12.889186861451416 4.296395620483835 4.296395620483835 0.0 -0.0 0.8172568989423515 0.5762735124323614
131 9.095006312747246 35.5384390569568 36.52550376179074 12.889186861451416 4.296395620483835 4.296395620483835 0.0 0.0 0.5650588956672867 0.8250505708302167
132 26.235989236706924 60.32541966905348 52.83465578109015 13.018725342988073 4.339575114329414 4.339575114329414 0.0 0.0 0.5632303093681869 0.8262999568008076
133 16.20538165874113 48.79435935141301 33.623351617217196 13.018725342988073 4.339575114329414 4.339575114329414 0.0 0.0 0.7047758212396541 0.7094300823872436
134 59.46555895116677 30.106032083353863 45.38274125261324 13.149565707907923 4.383188569302631 4.383188569302631 0.0 -0.0 0.7457546235329385 0.6662207152882933
135 40.9090056702369 39.46669249419118 60.866233107883154 13.149565707907923 4.383188569302631 4.383188569302631 0.0 0.0 0.5807371118896761 0.8140911539097067
136 20.421953218479572 60.42882160436354 60.85362592366648 13.281721040356539 4.427240346785579 4.427240346785579 0.0 -0.0 0.7765636880913803 0.6300387593933514
137 1.341692089970885 41.753820275539276 21.55392262195253 13.281721040356539 4.427240346785579 4.427240346785579 0.0 -0.0 0.9207785641385271 0.39008567754147583
138 56.354406660093986 17.06178668564503 24.372664030501753 13.415204555977468 4.471734851992457 4.471734851992457 0.0 0.0 0.5933031767685688 0.8049790931672228
139 5.990091297024447 8.8190474194811 60.827801600931885 13.415204555977468 4.471734851992457 4.471734851992457 0.0 0.0 0.36293328461656904 0.9318151270061183
140 60.82652509155026 0.32505722373325496 40.308764333220324 13.55002960323364 4.516676534411206 4.516676534411206 0.0 0.0 0.5657838974393875 0.8245535649054563
141 17.642022305738802 44.4553536463791 54.46799120665814 13.55002960323364 4.516676534411206 4.516676534411206 0.0 0.0 0.5898626798291705 0.8075035720941112
142 5.9586964310992725 15.173095729561467 8.318416394615655 13.686209664741272 4.5620698882471284 4.5620698882471284 0.0 0.0 0.494526605223718 0.8691624915548904
143 30.763919387581034 0.258859902040319 0.17495161492583833 13.686209664741272 4.5620698882471284 4.5620698882471284 0.0 0.0 0.6621201748514545 0.7493976741721844
144 9.742099424710466 33.58583408075383 45.51999260859233 13.823758358620863 4.60791945287372 4.60791945287372 0.0 -0.0 0.8358120424685423 0.5490156916378287
145 11.73081031668758 27.979883485796808 15.716574152656221 13.823758358620863 4.60791945287372 4.60791945287372 0.0 -0.0 0.7380766977143534 0.6747168208152773
146 18.338792570603964 60.726241169518204 46.82821291829636 13.962689439856103 4.65422981328546 4.65422981328546 0.0 0.0 0.5600689403365469 0.8284460043179022
147 37.37226131477851 16.727722504270773 32.741125094502856 13.962689439856103 4.65422981328546 4.65422981328546 0.0 -0.0 0.8053653384335279 0.5927787712543771
148 0.43181809409535 18.21497367044225 52.77084392517862 14.103016801671286 4.701005600557092 4.701005600557092 0.0 -0.0 0.9475491048281723 0.31961022189430877
149 45.45279667697227 60.43514749981013 25.349026220942633 14.103016801671286 4.701005600557092 4.701005600557092 0.0 -0.0 0.8855269061838191 0.46458809543994295
150 18.67854666541451 29.99794833401085 24.326087088685224 14.244754476918951 4.748251492306319 4.748251492306319 0.0 -0.0 0.8997163709941051 0.43647502994466686
151 33.06795246487685 32.67941860437657 37.72633037089753 14.244754476918951 4.748251492306319 4.748251492306319 0.0 0.0 0.6949034215940625 0.7191030765174521
152 56.97034876561578 1.05857770862142 60.287759204752945 14.387916639485033 4.795972213161655 4.795972213161655 0.0 0.0 0.6496096252583186 0.7602679361723385
153 31.875405284054178 41.92522528252054 6.963023836732297 14.387916639485033 4.795972213161655 4.795972213161655 0.0 0.0 0.6980264017745981 0.7160720232110785
154 38.07826912720702 9.304959574726723 8.84083503873105 14.532517605704724 4.84417253523491 4.84417253523491 0.0 -0.0 0.9126309719920443 0.4087844284716046
155 20.770292271455396 25.83193752557651 7.521824361628552 14.532517605704724 4.84417253523491 4.84417253523491 0.0 0.0 0.34897032679986184 0.9371337743423815
156 34.13383743275835 40.54005030252282 47.06918617898892 14.678571835795893 4.892857278598543 4.892857278598543 0.0 0.0 0.6995675014656925 0.7145665195718649
157 25.468080736342916 32.5522473295456 46.04123181563155 14.678571835795893 4.892857278598543 4.892857278598543 0.0 0.0 0.63565327495599 0.7719746848425306
158 52.467172126819584 0.08982492413526955 33.13910545055006 14.826093935302659 4.9420313117674475 4.9420313117674475 0.0 -0.0 0.7426985308561326 0.6696259345814963
159 22.09983438088889 17.752661167733475 16.224421802278243 14.826093935302659 4.9420313117674475 4.9420313117674475 0.0 0.0 0.4891044501540252 0.8722252213961303
160 47.76628708643704 57.75278902241342 1.3648862542393783 14.975098656557943 4.9916995521860095 4.9916995521860095 0.0 0.0 0.6466947184788655 0.7627489371290798
161 27.464271389782173 6.697295333473568 36.81223548909145 14.975098656557943 4.9916995521860095 4.9916995521860095 0.0 0.0 0.6377575578887067 0.7702371695496348
162 0.0376919997510999 0.2668872767321844 8.476967869551679 15.125600900157876 5.0418669667192635 5.0418669667192635 0.0 0.0 0.6701572236966805 0.7422191694689361
163 37.949139223306254 59.90924059074054 33.5790285277415 15.125600900157876 5.0418669667192635 5.0418669667192635 0.0 -0.0 0.7797338016261434 0.6261111711203069
164 45.31018397830823 39.89966395126784 35.96988256996857 15.277615716453031 5.09253857215101 5.09253857215101 0.0 0.0 0.6966086930688543 0.7174512727293072
165 59.79415360188512 28.48412285469155 15.61624552904826 15.277615716453031 5.09253857215101 5.09253857215101 0.0 -0.0 0.8994069955971553 0.43711217813153935
11_F 17.728720631330674 36.98872889614723 -0.10800595431200577 5.733858742371546 1.911286247457202 1.911286247457202 0.0 0.0 0.49983922045674145 0.866118209999765
25_B 12.13002880876184 66.4435080202595 54.89824860743537 6.595507477698508 2.198502492566146 2.198502492566146 0.0 0.0 0.6637035342538496 0.7479957343587923
26_R 63.86063523221783 53.664907111823 31.534227816591667 6.661793429854194 2.2205978099513763 2.2205978099513763 0.0 0.0 0.5361151400853296 0.8441448670526212
30_T 21.979635362982886 -2.5059078453674033 22.500780993828425 6.933666377236336 2.3112221257454606 2.3112221257454606 0.0 -0.0 0.8433777540022546 0.5373210995802349
36_BB 39.009178258076155 65.13074155790287 59.60572595328932 7.362420360902131 2.4541401203007736 2.4541401203007736 0.0 -0.0 0.739632735620696 0.6730107104632479
36_FT 39.009178258076155 4.230741557902871 -1.294274046710676 7.362420360902131 2.4541401203007736 2.4541401203007736 0.0 -0.0 0.739632735620696 0.6730107104632479
36_FB 39.009178258076155 65.13074155790287 -1.294274046710676 7.362420360902131 2.4541401203007736 2.4541401203007736 0.0 -0.0 0.739632735620696 0.6730107104632479
40_L -3.6562900863111807 15.135509110939582 12.914641011865418 7.662886435760523 2.554295478586837 2.554295478586837 0.0 -0.0 0.8608342640850161 0.5088854191045453
42_T 14.214697332968969 -6.090774358167856 40.30626598151302 7.817687010235493 2.6058956700785503 2.6058956700785503 0.0 0.0 0.6858728758951139 0.7277213739552836
43_L -0.6380806778216908 41.85498562577881 40.352264844854865 7.896256070900313 2.632085356966728 2.632085356966728 0.0 -0.0 0.8971229945165649 0.4417808650333688
45_T 47.54766738998231 -2.6530830166661232 40.903161025142055 8.055771024726944 2.6852570082422607 2.6852570082422607 0.0 -0.0 0.8021859139948743 0.5970743332184094
46_T 16.993898288318487 -4.6032372231359915 13.447159201092354 8.136732869517 2.7122442898390515 2.7122442898390515 0.0 0.0 0.6689296931602822 0.7433256793683982
48_R 61.00951721226028 47.180809797179265 13.582914119184771 8.301105776921158 2.7670352589737206 2.7670352589737206 0.0 0.0 0.43861391052531945 0.8986756019241242
49_T 24.43585422287179 -0.6024613750330232 9.00581224798476 8.384533276962538 2.794844425654154 2.794844425654154 0.0 -0.0 0.7611420715427216 0.6485851886434459
50_F 26.012159790890625 25.57689782298461 -0.38824348183560176 8.468799237318802 2.8229330791062313 2.8229330791062313 0.0 0.0 0.5689873473401131 0.8223462765568174
53_T 7.929535346167757 -7.3339169711225765 3.345182622673264 8.72671257123717 2.9089041904124424 2.9089041904124424 0.0 0.0 0.4937832216878833 0.8695850332081013
56_B 42.14795855609042 64.28657750735931 17.48905067311107 8.903003859204503 2.9676679530681915 2.9676679530681915 0.0 0.0 0.591041689671776 0.8066410112744902
57_T 51.141785535883585 -0.2828060817668572 54.33956168239472 8.903003859204503 2.9676679530681915 2.9676679530681915 0.0 0.0 0.6906372933410847 0.7232013060320761
59_T 33.621956474957166 -3.295866701842165 23.80677649801234 8.992480535540535 2.9974935118468173 2.9974935118468173 0.0 -0.0 0.8334397726994561 0.5526103014626843
62_B 18.298569768565958 69.66465531037919 39.735952937800455 9.17414069252299 3.0580468975076323 3.0580468975076323 0.0 0.0 0.6993489688984815 0.7147803996337831