ITEM: TIMESTEP
507
ITEM: NUMBER OF ATOMS
250
ITEM: BOX BOUNDS ff ff ff
0 60.9
60.9 0
60.9 0
ITEM: ATOMS id x y z AsphericalShapeX AsphericalShapeY AsphericalShapeZ OrientationX OrientationY OrientationZ OrientationW
1 48.353642683703 41.84475027023853 22.019590631565205 3.585864829161707 1.1952882763872406 1.1952882763872406 0.0 -0.0 0.7863642711635499 0.6177630881150306
2 9.638290701652782 17.74864590643526 22.97685648115045 3.621903369836018 1.2073011232786508 1.2073011232786508 0.0 -0.0 0.8896314041555925 0.4566792799549252
3 11.395123721744346 18.357678646823445 59.02357256762916 3.6583041038655186 1.2194347012885236 1.2194347012885236 0.0 0.0 0.631512325711268 0.7753658378305981
4 15.496169520539656 45.50432918811688 49.742643015478805 3.695070671354131 1.231690223784707 1.231690223784707 0.0 0.0 0.5765741652112841 0.8170448164029381
5 45.92536601861074 17.998059949169832 18.321166186674596 3.732206748989046 1.2440689163296779 1.2440689163296779 0.0 -0.0 0.8873914294477543 0.4610167577677315
6 27.81213392177077 8.927975375388819 20.42695196332228 3.769716050409035 1.2565720168030177 1.2565720168030177 0.0 0.0 0.643710445538684 0.7652691437033046
7 27.829229899850574 59.17828691745307 33.17783718457635 3.807602326575505 1.2692007755251664 1.2692007755251664 0.0 -0.0 0.7603958793842515 0.6494598575858641
8 45.45152087045415 32.700165241884086 17.042360692348428 3.8458693661476304 1.28195645538256 1.28195645538256 0.0 -0.0 0.7854601334426244 0.6189122545016335
9 50.58435630106752 1.512544020620399 52.16092077647268 3.8845209958613363 1.2948403319537802 1.2948403319537802 0.0 -0.0 0.7176002965020949 0.6964551776389529
10 48.61708944398024 10.641640526409837 10.977128151135918 3.9235610809117025 1.3078536936372385 1.3078536936372385 0.0 0.0 0.38534345666417513 0.9227732226317065
11 27.957660211998203 34.37618790559625 57.325235748998274 3.9629935253397894 1.320997841779933 1.320997841779933 0.0 0.0 0.49983922045674145 0.866118209999765
12 3.445243460212376 12.495402585592446 25.185605481303554 4.00282227242288 1.3342740908076443 1.3342740908076443 0.0 0.0 0.2746680171135514 0.9615391205639581
13 5.6100533321178006 47.8528621311601 17.259755039546636 4.043051305069047 1.3476837683563307 1.3476837683563307 0.0 -0.0 0.7886508549344257 0.614841303924191
14 17.393208698384413 30.671698153555262 28.275439291222057 4.083684646214821 1.3612282154049182 1.3612282154049182 0.0 -0.0 0.7750680292508737 0.6318777967559605
15 26.959880607270552 39.1195265769925 21.355041022990356 4.124726359228278 1.3749087864094476 1.3749087864094476 0.0 0.0 0.6340811782098568 0.7732664866913604
16 12.275944376972953 30.777226136935944 53.234871541211625 4.166180548315083 1.3887268494383413 1.3887268494383413 0.0 -0.0 0.7629176367612683 0.6464956918020424
17 23.889359693108144 20.495593562636813 36.19046112821033 4.208051358928428 1.4026837863094597 1.4026837863094597 0.0 0.0 0.6579222258448839 0.7530858813836
18 37.84493827948997 37.37892892702836 16.51353728091299 4.250342978184414 1.416780992728126 1.416780992728126 0.0 0.0 0.506211649243881 0.8624092799650234
19 24.91384471478248 17.6008682458645 41.2274852409893 4.293059635280202 1.4310198784267187 1.4310198784267187 0.0 0.0 0.6434542777811493 0.7654845474633303
20 30.305319050800303 53.649822152072446 35.99537036329142 4.33620560191705 1.4454018673056936 1.4454018673056936 0.0 -0.0 0.7861857262579329 0.6179902942832407
21 42.59382395613494 22.212143577172046 46.803262923265144 4.379785192727607 1.4599283975758508 1.4599283975758508 0.0 0.0 0.6069811502172251 0.7947162281474907
22 15.578233486397124 2.2618218479787195 26.96895990609698 4.423802765707239 1.4746009219024092 1.4746009219024092 0.0 -0.0 0.8910647246123514 0.45387625687131333
23 39.63091088927459 50.10915542499515 45.296504738160905 4.468262722650039 1.4894209075500258 1.4894209075500258 0.0 -0.0 0.7582829367961579 0.651925599868416
24 28.205723634570717 60.52101363971254 48.53798606563006 4.513169509588623 1.5043898365295416 1.5043898365295416 0.0 0.0 0.5255054740936084 0.8507902189715464
25 18.104775882683736 57.84677817436386 48.4926985640814 4.558527617239226 1.5195092057463875 1.5195092057463875 0.0 0.0 0.6637035342538496 0.7479957343587923
26 0.5683093587671324 54.21545276702275 27.72222051281556 4.6043415814502 1.534780527150078 1.534780527150078 0.0 0.0 0.5361151400853296 0.8441448670526212
27 60.86284596078638 24.498514174032906 26.630056695617174 4.65061598365636 1.5502053278854548 1.5502053278854548 0.0 -0.0 0.7297620279401082 0.6837012378054764
28 19.942670221706567 32.79570975445178 30.751770293652434 4.697355451336417 1.5657851504454572 1.5657851504454572 0.0 -0.0 0.9828164757017253 0.18458541407500267
29 45.92910324818722 32.57742141474188 29.681160420845305 4.744564658476089 1.5815215528253788 1.5815215528253788 0.0 -0.0 0.8740853421614372 0.4857723897243679
30 17.262018356108783 59.366492762039606 31.833730915051113 4.792248326035407 1.5974161086784846 1.5974161086784846 0.0 -0.0 0.8433777540022546 0.5373210995802349
31 53.64879316519872 56.41928197743767 37.431210215155325 4.840411222420858 1.613470407473648 1.613470407473648 0.0 0.0 0.6952778540174372 0.7187410560924617
32 54.832518124082824 35.3815944664913 34.18667529289323 4.88905816396229 1.6296860546541112 1.6296860546541112 0.0 0.0 0.6353234605105568 0.7722461398575527
33 23.592122552312226 32.12164288244748 24.90739607236078 4.938194015394342 1.6460646717980962 1.6460646717980962 0.0 0.0 0.6411270229476993 0.7674347792784871
34 24.211914169349374 12.216135640607112 20.938387807451633 4.987823690343043 1.662607896781044 1.662607896781044 0.0 -0.0 0.7453722743584635 0.6666484625480594
35 24.96363477870866 53.37474653279354 42.58994617107509 5.037952151817385 1.6793173839391473 1.6793173839391473 0.0 -0.0 0.7109313362059317 0.7032614273514853
36 38.41101328872401 1.5455443098801434 0.9598600434236855 5.088584412705159 1.696194804235083 1.696194804235083 0.0 -0.0 0.739632735620696 0.6730107104632479
37 19.16940030984677 1.5062124760331592 14.684356451665547 5.139725536274812 1.7132418454249523 1.7132418454249523 0.0 0.0 0.5163603530767541 0.8563714064414165
38 17.958368596552614 11.766180900734623 21.498984089171156 5.191380636681117 1.7304602122270183 1.7304602122270183 0.0 0.0 0.5145463711011363 0.8574625542766586
39 10.480462686208103 28.36972047811311 23.081265933683152 5.2435548794772595 1.74785162649242 1.74785162649242 0.0 0.0 0.5880831456971182 0.8088004783300898
40 0.5262234162333628 25.506838527601268 15.35311309799214 5.29625348213107 1.7654178273770007 1.7654178273770007 0.0 -0.0 0.8608342640850161 0.5088854191045453
41 23.44352872806274 5.792887557384972 38.07577326841185 5.349481714546543 1.7831605715155017 1.7831605715155017 0.0 0.0 0.5813114541301716 0.8136811373609846
42 15.075826801834886 15.020977498517748 39.27727091007058 5.403244899591385 1.8010816331971478 1.8010816331971478 0.0 0.0 0.6858728758951139 0.7277213739552836
43 1.0570192983818503 47.97413640316714 36.905561351114535 5.457548413629021 1.8191828045429974 1.8191828045429974 0.0 -0.0 0.8971229945165649 0.4417808650333688
44 48.711139643345184 13.06422839491977 27.92199067603627 5.5123976870559215 1.8374658956852912 1.8374658956852912 0.0 -0.0 0.7662793896249596 0.6425075073771507
45 41.954657683213945 39.78313174339621 36.77417738137304 5.5677982048452455 1.855932734948393 1.855932734948393 0.0 -0.0 0.8021859139948743 0.5970743332184094
46 15.835507079567371 33.701827728214234 19.341477561440787 5.623755507094783 1.8745851690316164 1.8745851690316164 0.0 0.0 0.6689296931602822 0.7433256793683982
47 48.01818012766433 24.437947702671778 14.438294948913782 5.680275189581633 1.8934250631938778 1.8934250631938778 0.0 -0.0 0.8121614142020023 0.5834328044268712
48 57.28048572439088 48.07318105553266 18.56245566797983 5.737362904321016 1.91245430144034 1.91245430144034 0.0 0.0 0.43861391052531945 0.8986756019241242
49 23.64954997597866 8.010002610340722 6.90668374246082 5.795024360131911 1.9316747867106516 1.9316747867106516 0.0 -0.0 0.7611420715427216 0.6485851886434459
50 26.845432002349522 13.131796735366391 55.827483104376505 5.853265323208086 1.9510884410693474 1.9510884410693474 0.0 0.0 0.5689873473401131 0.8223462765568174
51 44.92308881661678 28.069463457285725 39.324142970593634 5.912091617694331 1.9706972058980847 1.9706972058980847 0.0 -0.0 0.9816329176571261 0.1907794930592849
52 34.6622931090338 26.733449166690633 23.062257897226022 5.971509126269076 1.9905030420896557 1.9905030420896557 0.0 -0.0 0.8312938914163103 0.5558331279205367
53 10.239633584821354 55.50920654105677 6.57677235484231 6.031523790732603 2.0105079302442377 2.0105079302442377 0.0 0.0 0.4937832216878833 0.8695850332081013
54 29.30366495965987 53.00393638713412 40.64343546303816 6.092141612601606 2.0307138708671992 2.0307138708671992 0.0 -0.0 0.7425013715714329 0.6698445440656666
55 21.725223959471943 43.015838877794 10.851425860201179 6.092141612601606 2.0307138708671992 2.0307138708671992 0.0 -0.0 0.899222239431846 0.4374921303419936
56 36.33330407115941 13.632904113452174 21.755647670700267 6.153368653708691 2.051122884569554 2.051122884569554 0.0 0.0 0.591041689671776 0.8066410112744902
57 51.83726384576908 60.6338285691486 56.18283209928582 6.153368653708691 2.051122884569554 2.051122884569554 0.0 0.0 0.6906372933410847 0.7232013060320761
58 26.411051909440083 38.15597527255925 35.37895973026528 6.215211036808927 2.071737012269639 2.071737012269639 0.0 -0.0 0.9778925487455288 0.20910801779935065
59 26.765861143935766 55.34814112535093 22.782190530317276 6.215211036808927 2.071737012269639 2.071737012269639 0.0 -0.0 0.8334397726994561 0.5526103014626843
60 43.13752800179411 26.719453658850334 55.35683573052572 6.277674946192334 2.0925583153974174 2.0925583153974174 0.0 -0.0 0.8251393648538317 0.5649292243888745
61 11.778025324775967 1.8049998006436243 42.01524261628606 6.277674946192334 2.0925583153974174 2.0925583153974174 0.0 -0.0 0.8342848482439009 0.5513336485202505
62 16.49349325124591 60.465895538791294 43.45515801154993 6.340766628301621 2.113588876100515 2.113588876100515 0.0 0.0 0.6993489688984815 0.7147803996337831
63 32.300006968912186 59.9121956561374 51.6858246318171 6.340766628301621 2.113588876100515 2.113588876100515 0.0 0.0 0.6638694557235675 0.747848477806363
64 39.99596230980767 33.01496464964406 43.18987681651578 6.404492392357799 2.134830797452591 2.134830797452591 0.0 0.0 0.5469534661185369 0.8371630103515794
65 17.88598329843958 18.029600745088192 4.519676136292157 6.404492392357799 2.134830797452591 2.134830797452591 0.0 0.0 0.534266604389083 0.8453160328744268
66 29.14496948772615 4.103217152986317 27.625328330599878 6.468858610990146 2.15628620366341 2.15628620366341 0.0 0.0 0.49259387534365895 0.8702593142126752
67 58.87759616795448 22.737098520459963 8.515061421921157 6.468858610990146 2.15628620366341 2.15628620366341 0.0 -0.0 0.7991221049958454 0.6011687461162707
68 43.2927785477839 42.54767567240874 19.886598957849962 6.533871720874539 2.1779572402915233 2.1779572402915233 0.0 -0.0 0.8113628171424923 0.5845428803420658
69 32.7138412030263 13.552957636882976 56.294078190587754 6.533871720874539 2.1779572402915233 2.1779572402915233 0.0 0.0 0.69974083585519 0.7143967823532522
70 10.175654745484232 59.808401172241034 19.80182781348603 6.599538223375858 2.1998460744586055 2.1998460744586055 0.0 -0.0 0.9226100212719841 0.3857340387475665
71 22.729698957906812 58.76806192098094 23.933802434343818 6.599538223375858 2.1998460744586055 2.1998460744586055 0.0 -0.0 0.8908476943010929 0.4543020862360491
72 5.294872920670333 42.399670317059716 8.922509979056104 6.6658646851990815 2.221954895066382 2.221954895066382 0.0 -0.0 0.9180976465577227 0.39635427509384946
73 40.20568078628556 37.86420883472744 28.936054295522112 6.6658646851990815 2.221954895066382 2.221954895066382 0.0 0.0 0.6852526383261238 0.7283054453092375
74 41.289408156732456 19.245376300181924 13.995847543247388 6.732857739045843 2.2442859130152844 2.2442859130152844 0.0 0.0 0.6622208999947843 0.7493086677799063
75 54.93411055771484 46.75423021030578 42.08299382116909 6.732857739045843 2.2442859130152844 2.2442859130152844 0.0 0.0 0.6669694181073614 0.7450850926636016
76 54.36278537762765 5.559248687576068 32.66171546396957 6.800524084277112 2.2668413614257457 2.2668413614257457 0.0 0.0 0.4849872773235938 0.8745212066235144
77 20.438497854160627 47.51159923823804 15.646750873821665 6.800524084277112 2.2668413614257457 2.2668413614257457 0.0 -0.0 0.724549744492829 0.6892225096116464
78 2.892049582122692 16.603020266227762 12.081451581964085 6.868870487584037 2.289623495861346 2.289623495861346 0.0 0.0 0.646327957303847 0.7630597431442944
79 9.04214136976626 14.588706795718796 29.119102752893365 6.868870487584037 2.289623495861346 2.289623495861346 0.0 0.0 0.4210348644808628 0.9070444547493698
80 50.250190866702084 11.35634258169277 18.125790575238984 6.937903783663859 2.3126345945545848 2.3126345945545848 0.0 0.0 0.5786941501693628 0.8155446527074768
81 54.74498814561936 42.84284811026097 24.040037497369514 6.937903783663859 2.3126345945545848 2.3126345945545848 0.0 0.0 0.683142879342022 0.730284743373632
82 11.795496659395285 6.254388481115083 3.029415084465897 7.007630875903523 2.335876958634473 2.335876958634473 0.0 0.0 0.3480344086077516 0.937481760049257
83 20.754041292350465 52.264179124927495 1.472575559514552 7.007630875903523 2.335876958634473 2.335876958634473 0.0 -0.0 0.8280938516825816 0.560589486884571
84 30.92173540418483 11.058217939547273 6.8074792318612225 7.0780587370704104 2.3593529123568366 2.3593529123568366 0.0 -0.0 0.8521868438699086 0.5232375972109076
85 20.992897811704587 41.579497056562644 30.26610430060751 7.0780587370704104 2.3593529123568366 2.3593529123568366 0.0 0.0 0.2683204071818837 0.9633297250109892
86 4.778788089423236 3.52162360657339 60.40801758467923 7.14919441000954 2.3830648033365227 2.3830648033365227 0.0 0.0 0.5717525694490604 0.8204261083902665
87 7.5740857184659625 51.25271448297128 46.53726621608195 7.14919441000954 2.3830648033365227 2.3830648033365227 0.0 -0.0 0.7407334016199733 0.6717990977401677
88 30.66254378509065 50.30823833534786 52.9457543446327 7.22104500834744 2.4070150027824444 2.4070150027824444 0.0 0.0 0.6524446383875427 0.7578363898885753
89 38.37357308350575 25.318551059692183 50.287544140515536 7.22104500834744 2.4070150027824444 2.4070150027824444 0.0 0.0 0.3815125934194192 0.9243636411404275
90 20.063871177526888 10.203261452067645 46.57583781519177 7.293617717203642 2.4312059057345166 2.4312059057345166 0.0 -0.0 0.7664413141092511 0.642314340511314
91 38.88271325991417 58.541087686588405 27.542586369365686 7.293617717203642 2.4312059057345166 2.4312059057345166 0.0 -0.0 0.7164030651197486 0.6976866404676452
92 49.824621187625 18.098304735641015 40.43854200052844 7.3669197939094735 2.4556399313031556 2.4556399313031556 0.0 0.0 0.3159382626609752 0.9487797500931208
93 18.99583009940204 34.122900479293065 41.54458684617628 7.3669197939094735 2.4556399313031556 2.4556399313031556 0.0 -0.0 0.807675111463051 0.5896277760783901
94 50.734768693813905 15.130071582160085 49.343948875048724 7.440958568733886 2.480319522911325 2.480319522911325 0.0 0.0 0.5856043209472178 0.8105970511221638
95 46.171287911495284 58.859201031084815 55.004987766236816 7.440958568733886 2.480319522911325 2.480319522911325 0.0 -0.0 0.8283891439806925 0.5601530381377355
96 38.60367571305814 8.097162675495552 41.88559303897096 7.515741445616047 2.505247148538727 2.505247148538727 0.0 0.0 0.6380161188650698 0.7700230074928626
97 30.295484193067473 15.379194844413407 25.976427990416237 7.515741445616047 2.505247148538727 2.505247148538727 0.0 0.0 0.5652655734899162 0.8249089837231233
98 17.878309127482037 24.522977590813106 40.71717064602397 7.5912759029059975 2.530425300968634 2.530425300968634 0.0 -0.0 0.9884337224668884 0.15165347437579585
99 52.07990621256533 38.68268803665871 8.402138135129963 7.5912759029059975 2.530425300968634 2.530425300968634 0.0 0.0 0.644584962479319 0.7645326848117973
100 33.73496466421171 30.502816818297852 54.96192874858768 7.667569494112138 2.5558564980374125 2.5558564980374125 0.0 -0.0 0.7665764345255346 0.6421530736748979
101 13.408155735916147 32.71327057454103 59.902410709054664 7.667569494112138 2.5558564980374125 2.5558564980374125 0.0 -0.0 0.7486465484609144 0.6629693397718779
102 42.39658855766418 43.03962454764744 12.753616771700953 7.744629848657394 2.581543282885839 2.581543282885839 0.0 -0.0 0.764238184631255 0.644934102952793
103 26.76549172306393 45.2140970090324 3.308470792014335 7.744629848657394 2.581543282885839 2.581543282885839 0.0 -0.0 0.7262700822056904 0.6874094614514261
104 46.76836854806775 2.7411519721969544 48.82213175198687 7.822464672641601 2.607488224213819 2.607488224213819 0.0 0.0 0.6864264585310771 0.7271992278794606
105 18.32164757376748 48.80357878468727 10.709799878583553 7.822464672641601 2.607488224213819 2.607488224213819 0.0 -0.0 0.8498704758576332 0.5269916263713497
106 17.341917635474996 19.448091339210322 55.375644355604045 7.901081749611596 2.6336939165371995 2.6336939165371995 0.0 -0.0 0.793590538753224 0.6084521811953406
107 40.310708398763396 59.67938463588549 18.655288067540127 7.901081749611596 2.6336939165371995 2.6336939165371995 0.0 -0.0 0.8299364941277125 0.5578578812878792
108 48.60675994443859 48.85277635434977 3.5312081670679056 7.9804889413409 2.6601629804469202 2.6601629804469202 0.0 -0.0 0.7596155095013813 0.650372414640225
109 60.03935479250377 41.07430411487708 0.5489201409206397 7.9804889413409 2.6601629804469202 2.6601629804469202 0.0 -0.0 0.746179639226726 0.6657446552571586
110 43.55529156782959 13.457756793099119 52.496108111789404 8.060694188614704 2.686898062871522 2.686898062871522 0.0 -0.0 0.7434755474029917 0.6687631198068729
111 32.31958385240347 37.87101658750616 20.487696054227527 8.060694188614704 2.686898062871522 2.686898062871522 0.0 -0.0 0.7635489887521677 0.6457499065238353
112 48.336850719948906 56.76553369635831 15.894916795988756 8.141705512024567 2.7139018373415693 2.7139018373415693 0.0 -0.0 0.925703395166632 0.3782502137170186
113 13.997051417972388 5.196873187143202 10.341504435793683 8.141705512024567 2.7139018373415693 2.7139018373415693 0.0 -0.0 0.7476030998596368 0.6641457709571461
114 10.522046599233892 60.521825425651656 33.66246217602164 8.223531012770547 2.7411770042568455 2.7411770042568455 0.0 -0.0 0.7095009508808979 0.7047044775642494
115 26.878509311628058 10.836169505225842 50.76815336742612 8.223531012770547 2.7411770042568455 2.7411770042568455 0.0 0.0 0.692332939305712 0.7215782016887105
116 8.900799979559913 24.422539901829794 54.145251689788815 8.306178873470811 2.7687262911569155 2.7687262911569155 0.0 0.0 0.4838188577050026 0.8751681626573412
117 47.29406896831762 40.770954640788496 32.182696354983044 8.306178873470811 2.7687262911569155 2.7687262911569155 0.0 0.0 0.4072390243389004 0.9133216175343166
118 42.01306810736263 22.035842044915977 59.948300328413175 8.389657358980067 2.796552452993357 2.796552452993357 0.0 -0.0 0.9854258972554679 0.17010526452245991
119 35.663517234586465 31.694459275388432 60.43212537784865 8.389657358980067 2.796552452993357 2.796552452993357 0.0 0.0 0.693566054094668 0.720393037589587
120 30.95149875991632 28.274921372229777 32.873153043000464 8.473974817216757 2.824658272405579 2.824658272405579 0.0 -0.0 0.8546373086497397 0.5192254526349123
121 5.302136305779224 47.507770631679186 55.35980044595949 8.473974817216757 2.824658272405579 2.824658272405579 0.0 -0.0 0.738138054050796 0.6746496966293722
122 54.06278528929037 30.481302256418928 0.024174394660235528 8.559139679996793 2.8530465599989596 2.8530465599989596 0.0 0.0 0.30497028615780525 0.9523618663936657
123 43.18688512403263 38.78334973111739 52.38870581971885 8.559139679996793 2.8530465599989596 2.8530465599989596 0.0 -0.0 0.8240326158671573 0.5665423620411186
124 6.1925766218085885 45.68029910875116 0.548784862548432 8.645160463877618 2.8817201546258655 2.8817201546258655 0.0 -0.0 0.7351480847541838 0.6779065521753388
125 60.685118591122105 50.27775884549618 53.75814489581568 8.645160463877618 2.8817201546258655 2.8817201546258655 0.0 0.0 0.6354145425399089 0.7721711980699606
126 28.64622776613962 1.6987722622854518 42.57069287490992 8.732045771009021 2.9106819236696806 2.9106819236696806 0.0 -0.0 0.9631928649301144 0.2688112812880415
127 53.7306377174901 28.196317305822806 42.32068036505634 8.732045771009021 2.9106819236696806 2.9106819236696806 0.0 0.0 0.6645731125154195 0.7472232451694524
128 10.861668429031289 44.431569509316525 52.1068969442193 8.819804289994137 2.9399347633313773 2.9399347633313773 0.0 -0.0 0.837305869343264 0.5467347447925007
129 41.97830312692224 60.09098478189184 11.437028648321805 8.819804289994137 2.9399347633313773 2.9399347633313773 0.0 0.0 0.6718759690179156 0.7406636768846148
130 30.217359049339407 41.695959733281626 11.707326390195421 8.908444796758351 2.9694815989194248 2.9694815989194248 0.0 -0.0 0.8172568989423515 0.5762735124323614
131 4.975980787139576 21.29889515338821 36.52257692999902 8.908444796758351 2.9694815989194248 2.9694815989194248 0.0 0.0 0.5650588956672867 0.8250505708302167
132 25.534513732310383 3.0370224563337476 56.01039944724974 8.997976155425864 2.9993253851419444 2.9993253851419444 0.0 0.0 0.5632303093681869 0.8262999568008076
133 23.147959986223228 48.52349736672124 38.288121321619684 8.997976155425864 2.9993253851419444 2.9993253851419444 0.0 0.0 0.7047758212396541 0.7094300823872436
134 0.3149197066215534 34.75566444542188 44.26344246524057 9.088407319207132 3.0294691064023676 3.0294691064023676 0.0 -0.0 0.7457546235329385 0.6662207152882933
135 43.010785588249696 45.65753816467855 60.49036319095407 9.088407319207132 3.0294691064023676 3.0294691064023676 0.0 0.0 0.5807371118896761 0.8140911539097067
136 15.609285049919373 58.479000338268975 59.85068535867373 9.179747331294163 3.059915777098056 3.059915777098056 0.0 -0.0 0.7765636880913803 0.6300387593933514
137 4.708425666575116 39.07355072181376 26.42712152661566 9.179747331294163 3.059915777098056 3.059915777098056 0.0 -0.0 0.9207785641385271 0.39008567754147583
138 50.264693865168645 23.75040186187498 21.906402974726713 9.272005325764116 3.0906684419213395 3.0906684419213395 0.0 0.0 0.5933031767685688 0.8049790931672228
139 0.9189374237059623 20.116660902944876 2.5480201344016016 9.272005325764116 3.0906684419213395 3.0906684419213395 0.0 0.0 0.36293328461656904 0.9318151270061183
140 2.3583696309856315 0.010584971119904973 42.001883971008525 9.365190528493446 3.121730176164476 3.121730176164476 0.0 0.0 0.5657838974393875 0.8245535649054563
141 23.191628677463477 48.64547952452595 56.69190196159025 9.365190528493446 3.121730176164476 3.121730176164476 0.0 0.0 0.5898626798291705 0.8075035720941112
142 6.505917507944511 26.861290513816847 2.1982440836581003 9.459312258079706 3.1531040860266133 3.1531040860266133 0.0 0.0 0.494526605223718 0.8691624915548904
143 34.14612468510186 55.48607854329038 60.218393548974326 9.459312258079706 3.1531040860266133 3.1531040860266133 0.0 0.0 0.6621201748514545 0.7493976741721844
144 12.925238824963445 33.513611613502704 48.40620071319138 9.554379926774786 3.1847933089249603 3.1847933089249603 0.0 -0.0 0.8358120424685423 0.5490156916378287
145 6.858340369561503 32.8637172676994 12.072499569314346 9.554379926774786 3.1847933089249603 3.1847933089249603 0.0 -0.0 0.7380766977143534 0.6747168208152773
146 25.3356220518323 51.97737070239962 49.56882657844821 9.650403041424468 3.216801013808182 3.216801013808182 0.0 0.0 0.5600689403365469 0.8284460043179022
147 39.28652621491923 21.71906404568043 34.70353102654539 9.650403041424468 3.216801013808182 3.216801013808182 0.0 -0.0 0.8053653384335279 0.5927787712543771
148 54.661610648421394 20.940976816074723 55.14501521489746 9.747391204420424 3.249130401473487 3.249130401473487 0.0 -0.0 0.9475491048281723 0.31961022189430877
149 46.81070569050913 54.768090354476534 23.11948403144993 9.747391204420424 3.249130401473487 3.249130401473487 0.0 -0.0 0.8855269061838191 0.46458809543994295
150 17.520780782384843 24.67134286205946 20.739725610528897 9.845354114659623 3.281784704886543 3.281784704886543 0.0 -0.0 0.8997163709941051 0.43647502994466686
151 29.32935559795887 34.467226774886505 41.32772459435474 9.845354114659623 3.281784704886543 3.281784704886543 0.0 0.0 0.6949034215940625 0.7191030765174521
152 59.22208364452406 9.303330491641633 2.090116358034952 9.944301568514797 3.3147671895049107 3.3147671895049107 0.0 0.0 0.6496096252583186 0.7602679361723385
153 32.47071932847886 29.124492654514437 6.082362243534391 9.944301568514797 3.3147671895049107 3.3147671895049107 0.0 0.0 0.6980264017745981 0.7160720232110785
154 41.28189628484718 10.008194210443884 5.1637546935763226 10.044243460813606 3.348081153604514 3.348081153604514 0.0 -0.0 0.9126309719920443 0.4087844284716046
155 16.35568169690727 41.385218650239544 4.445150353160193 10.044243460813606 3.348081153604514 3.348081153604514 0.0 0.0 0.34897032679986184 0.9371337743423815
156 34.43260348911629 40.068681965267785 46.984490045806325 10.145189785828894 3.381729928609584 3.381729928609584 0.0 0.0 0.6995675014656925 0.7145665195718649
157 25.867316202896433 24.68381779101481 45.275739092483825 10.145189785828894 3.381729928609584 3.381729928609584 0.0 0.0 0.63565327495599 0.7719746848425306
158 50.55846890563873 1.65495134004021 43.38425768850216 10.247150638277104 3.415716879425692 3.415716879425692 0.0 -0.0 0.7426985308561326 0.6696259345814963
159 20.950496337588113 21.88840782743078 9.287632895806011 10.247150638277104 3.415716879425692 3.415716879425692 0.0 0.0 0.4891044501540252 0.8722252213961303
160 53.86930262041326 59.97097142264538 9.05958256402914 10.350136214328396 3.450045404776161 3.450045404776161 0.0 0.0 0.6466947184788655 0.7627489371290798
161 29.726940658682363 12.910150776952044 36.27249148270607 10.350136214328396 3.450045404776161 3.450045404776161 0.0 0.0 0.6377575578887067 0.7702371695496348
162 0.8388806242643849 52.982066179409 13.80233517486845 10.45415681262621 3.4847189375420413 3.4847189375420413 0.0 0.0 0.6701572236966805 0.7422191694689361
163 45.571949086965844 1.8277661234014368 33.40443445277686 10.45415681262621 3.4847189375420413 3.4847189375420413 0.0 -0.0 0.7797338016261434 0.6261111711203069
164 47.96675761318894 43.44744415027867 38.41545410097472 10.559222835317199 3.5197409451057324 3.5197409451057324 0.0 0.0 0.6966086930688543 0.7174512727293072
165 0.4723701709798112 35.380041792782286 16.475505704930995 10.559222835317199 3.5197409451057324 3.5197409451057324 0.0 -0.0 0.8994069955971553 0.43711217813153935
7_T 27.829229899850574 -1.721713082546927 33.17783718457635 3.807602326575505 1.2692007755251664 1.2692007755251664 0.0 -0.0 0.7603958793842515 0.6494598575858641
9_B 50.58435630106752 62.412544020620395 52.16092077647268 3.8845209958613363 1.2948403319537802 1.2948403319537802 0.0 -0.0 0.7176002965020949 0.6964551776389529
12_R 64.34524346021237 12.495402585592446 25.185605481303554 4.00282227242288 1.3342740908076443 1.3342740908076443 0.0 0.0 0.2746680171135514 0.9615391205639581
22_B 15.578233486397124 63.161821847978715 26.96895990609698 4.423802765707239 1.4746009219024092 1.4746009219024092 0.0 -0.0 0.8910647246123514 0.45387625687131333
24_T 28.205723634570717 -0.37898636028745614 48.53798606563006 4.513169509588623 1.5043898365295416 1.5043898365295416 0.0 0.0 0.5255054740936084 0.8507902189715464
25_T 18.104775882683736 -3.053221825636136 48.4926985640814 4.558527617239226 1.5195092057463875 1.5195092057463875 0.0 0.0 0.6637035342538496 0.7479957343587923
26_R 61.46830935876713 54.21545276702275 27.72222051281556 4.6043415814502 1.534780527150078 1.534780527150078 0.0 0.0 0.5361151400853296 0.8441448670526212
27_L -0.03715403921361826 24.498514174032906 26.630056695617174 4.65061598365636 1.5502053278854548 1.5502053278854548 0.0 -0.0 0.7297620279401082 0.6837012378054764
30_T 17.262018356108783 -1.533507237960393 31.833730915051113 4.792248326035407 1.5974161086784846 1.5974161086784846 0.0 -0.0 0.8433777540022546 0.5373210995802349
31_T 53.64879316519872 -4.480718022562328 37.431210215155325 4.840411222420858 1.613470407473648 1.613470407473648 0.0 0.0 0.6952778540174372 0.7187410560924617
36_FB 38.41101328872401 62.44554430988014 0.9598600434236855 5.088584412705159 1.696194804235083 1.696194804235083 0.0 -0.0 0.739632735620696 0.6730107104632479
36_BT 38.41101328872401 1.5455443098801434 61.85986004342369 5.088584412705159 1.696194804235083 1.696194804235083 0.0 -0.0 0.739632735620696 0.6730107104632479
36_BB 38.41101328872401 62.44554430988014 61.85986004342369 5.088584412705159 1.696194804235083 1.696194804235083 0.0 -0.0 0.739632735620696 0.6730107104632479
37_B 19.16940030984677 62.40621247603316 14.684356451665547 5.139725536274812 1.7132418454249523 1.7132418454249523 0.0 0.0 0.5163603530767541 0.8563714064414165
40_R 61.42622341623336 25.506838527601268 15.35311309799214 5.29625348213107 1.7654178273770007 1.7654178273770007 0.0 -0.0 0.8608342640850161 0.5088854191045453
43_R 61.95701929838185 47.97413640316714 36.905561351114535 5.457548413629021 1.8191828045429974 1.8191828045429974 0.0 -0.0 0.8971229945165649 0.4417808650333688
48_L -3.61951427560912 48.07318105553266 18.56245566797983 5.737362904321016 1.91245430144034 1.91245430144034 0.0 0.0 0.43861391052531945 0.8986756019241242
57_T 51.83726384576908 -0.2661714308514007 56.18283209928582 6.153368653708691 2.051122884569554 2.051122884569554 0.0 0.0 0.6906372933410847 0.7232013060320761
59_T 26.765861143935766 -5.551858874649071 22.782190530317276 6.215211036808927 2.071737012269639 2.071737012269639 0.0 -0.0 0.8334397726994561 0.5526103014626843
61_B 11.778025324775967 62.70499980064362 42.01524261628606 6.277674946192334 2.0925583153974174 2.0925583153974174 0.0 -0.0 0.8342848482439009 0.5513336485202505