ITEM: TIMESTEP
61
ITEM: NUMBER OF ATOMS
172
ITEM: BOX BOUNDS ff ff ff
0 60.9
60.9 0
60.9 0
ITEM: ATOMS id x y z AsphericalShapeX AsphericalShapeY AsphericalShapeZ OrientationX OrientationY OrientationZ OrientationW
1 35.41893018379931 14.68846889766564 2.964197276875222 0.4376449200945356 0.14588164003151177 0.14588164003151177 0.0 -0.0 0.7863642711635499 0.6177630881150306
2 28.59868765686976 60.68300093157111 27.719849354349456 0.4420433246650236 0.14734777488834122 0.14734777488834122 0.0 -0.0 0.8896314041555925 0.4566792799549252
3 19.70240346532638 21.92239201473077 45.06768175899165 0.4464859339363483 0.1488286446454492 0.1488286446454492 0.0 0.0 0.631512325711268 0.7753658378305981
4 39.2154730419638 29.60236745623619 24.16442919129888 0.45097319217313925 0.15032439739104622 0.15032439739104622 0.0 0.0 0.5765741652112841 0.8170448164029381
5 16.12811696806024 28.560514279839726 45.79974352004389 0.4555055481049594 0.1518351827016531 0.1518351827016531 0.0 -0.0 0.8873914294477543 0.4610167577677315
6 19.848150812970935 18.271534866348375 11.080455300014451 0.4600834549711799 0.15336115165705994 0.15336115165705994 0.0 0.0 0.643710445538684 0.7652691437033046
7 60.31720091286634 4.720358470501692 16.074591075646236 0.4647073705663016 0.15490245685543383 0.15490245685543383 0.0 -0.0 0.7603958793842515 0.6494598575858641
8 45.134257529917086 41.685145751315666 59.09216361798343 0.46937775728573655 0.15645925242857878 0.15645925242857878 0.0 -0.0 0.7854601334426244 0.6189122545016335
9 50.077567504695715 2.43130913274545 3.3519191986970847 0.4740950821720507 0.1580316940573502 0.1580316940573502 0.0 -0.0 0.7176002965020949 0.6964551776389529
10 22.683661268058163 48.835844514516566 8.43678537427497 0.47885981696166224 0.1596199389872205 0.1596199389872205 0.0 0.0 0.38534345666417513 0.9227732226317065
11 35.66177999108641 53.34102807578339 50.69642736599221 0.483672438132021 0.16122414604400678 0.16122414604400678 0.0 0.0 0.49983922045674145 0.866118209999765
12 22.627331564902658 50.058181711363716 14.116664320612399 0.48853342694925367 0.1628444756497515 0.1628444756497515 0.0 0.0 0.2746680171135514 0.9615391205639581
13 33.4173434168909 52.30738222919036 59.41539134366847 0.49344326951629497 0.16448108983876492 0.16448108983876492 0.0 -0.0 0.7886508549344257 0.614841303924191
14 11.011423215832979 1.4912300800353637 35.91709233397112 0.49840245682149226 0.16613415227383074 0.16613415227383074 0.0 -0.0 0.7750680292508737 0.6318777967559605
15 14.781009668999538 2.474578994390393 33.55063704255279 0.503411484787708 0.16780382826256943 0.16780382826256943 0.0 0.0 0.6340811782098568 0.7732664866913604
16 15.4611169286171 48.464936270483186 44.75775403941259 0.508470854321913 0.16949028477397093 0.16949028477397093 0.0 -0.0 0.7629176367612683 0.6464956918020424
17 35.662821706008565 41.34134606319268 31.955794204731752 0.5135810713652785 0.17119369045509247 0.17119369045509247 0.0 0.0 0.6579222258448839 0.7530858813836
18 9.572265382883899 49.653253424041125 48.85599682650431 0.518742646943766 0.17291421564792173 0.17291421564792173 0.0 0.0 0.506211649243881 0.8624092799650234
19 3.893137868438335 12.031579064971709 45.96552066128099 0.523956097219234 0.17465203240641106 0.17465203240641106 0.0 0.0 0.6434542777811493 0.7654845474633303
20 20.74868211021981 0.9537621260867537 11.300961619698503 0.5292219435410551 0.17640731451368488 0.17640731451368488 0.0 -0.0 0.7861857262579329 0.6179902942832407
21 30.217231342791898 31.805935981653054 45.33838140426716 0.5345407124982511 0.1781802374994171 0.1781802374994171 0.0 0.0 0.6069811502172251 0.7947162281474907
22 29.040848218483873 6.359301055826609 16.509884292238958 0.5399129359721485 0.17997097865738285 0.17997097865738285 0.0 -0.0 0.8910647246123514 0.45387625687131333
23 46.38344324892481 52.38443866584483 33.48321795726596 0.545339151189572 0.18177971706319088 0.18177971706319088 0.0 -0.0 0.7582829367961579 0.651925599868416
24 23.097943287462975 46.52974637777894 44.44434155761939 0.5508199007765654 0.18360663359218854 0.18360663359218854 0.0 0.0 0.5255054740936084 0.8507902189715464
25 59.60900316711705 17.43203555865762 34.18421263984488 0.5563557328126544 0.18545191093755134 0.18545191093755134 0.0 0.0 0.6637035342538496 0.7479957343587923
26 54.25786131928019 34.49258744666404 18.417323070846685 0.5619472008856564 0.1873157336285524 0.1873157336285524 0.0 0.0 0.5361151400853296 0.8441448670526212
27 57.154312500817085 42.099353497156834 58.843519961499766 0.567594864147038 0.18919828804901243 0.18919828804901243 0.0 -0.0 0.7297620279401082 0.6837012378054764
28 45.11530811656753 23.969337023357706 32.81136461362579 0.5732992873678313 0.1910997624559439 0.1910997624559439 0.0 -0.0 0.9828164757017253 0.18458541407500267
29 41.928406630546554 43.432359720419505 21.119424538171412 0.5790610409951119 0.1930203469983706 0.1930203469983706 0.0 -0.0 0.8740853421614372 0.4857723897243679
30 13.969108637339787 20.440903309103433 38.567021137653406 0.5848807012090458 0.1949602337363483 0.1949602337363483 0.0 -0.0 0.8433777540022546 0.5373210995802349
31 23.42694763164786 40.5131010172595 36.05055017059384 0.5907588499805012 0.19691961666016702 0.19691961666016702 0.0 0.0 0.6952778540174372 0.7187410560924617
32 27.724207550934427 31.423090810259453 47.842088992929604 0.5966960751292566 0.1988986917097524 0.1988986917097524 0.0 0.0 0.6353234605105568 0.7722461398575527
33 21.25077412951826 22.449610300042742 17.999192537653173 0.602692970382772 0.20089765679425778 0.20089765679425778 0.0 0.0 0.6411270229476993 0.7674347792784871
34 9.867011831570084 19.388457190627502 16.482559576330452 0.6087501354355728 0.2029167118118574 0.2029167118118574 0.0 -0.0 0.7453722743584635 0.6666484625480594
35 26.69733081705687 21.96189169029584 51.17960166981856 0.6148681760092107 0.20495605866973649 0.20495605866973649 0.0 -0.0 0.7109313362059317 0.7032614273514853
36 14.839203414479378 58.091631482848996 37.71018948231815 0.6210477039128405 0.2070159013042803 0.2070159013042803 0.0 -0.0 0.739632735620696 0.6730107104632479
37 53.07439553774798 43.84092838268484 41.645318378925616 0.6272893371044032 0.2090964457014677 0.2090964457014677 0.0 0.0 0.5163603530767541 0.8563714064414165
38 55.76747767102706 29.62780339262209 37.06039611616615 0.6335936997524187 0.21119789991747315 0.21119789991747315 0.0 0.0 0.5145463711011363 0.8574625542766586
39 1.2438947664856115 37.371083188925525 13.293738648371736 0.6399614222984062 0.21332047409946892 0.21332047409946892 0.0 0.0 0.5880831456971182 0.8088004783300898
40 51.778905529885165 6.423404790138343 18.067822804708072 0.6463931415199273 0.21546438050664288 0.21546438050664288 0.0 -0.0 0.8608342640850161 0.5088854191045453
41 18.703568989119226 44.44206975801378 41.35965104555054 0.6528895005942631 0.21762983353142118 0.21762983353142118 0.0 0.0 0.5813114541301716 0.8136811373609846
42 35.73739019200233 23.051409667035436 24.25312557867967 0.6594511491627351 0.21981704972091165 0.21981704972091165 0.0 0.0 0.6858728758951139 0.7277213739552836
43 9.946351860796629 46.29846339687401 46.559889465417584 0.6660787433956671 0.22202624779855543 0.22202624779855543 0.0 -0.0 0.8971229945165649 0.4417808650333688
44 19.95816443234177 46.19104812725183 25.66864642246758 0.6727729460580052 0.22425764868600212 0.22425764868600212 0.0 -0.0 0.7662793896249596 0.6425075073771507
45 49.18149640628305 53.759967916659946 1.1668421379204388 0.6795344265755966 0.22651147552519896 0.22651147552519896 0.0 -0.0 0.8021859139948743 0.5970743332184094
46 30.003890366733764 50.74252230550774 19.58590464693424 0.6863638611021254 0.2287879537007087 0.2287879537007087 0.0 0.0 0.6689296931602822 0.7433256793683982
47 31.140569689799626 55.75683604087942 36.215342808289805 0.6932619325867353 0.23108731086224524 0.23108731086224524 0.0 -0.0 0.8121614142020023 0.5834328044268712
48 25.11440360711311 37.927601684454935 33.46694811741489 0.7002293308423253 0.2334097769474419 0.2334097769474419 0.0 0.0 0.43861391052531945 0.8986756019241242
49 15.754801630834724 29.368653007469497 55.33714655326972 0.7072667526145261 0.23575558420484244 0.23575558420484244 0.0 -0.0 0.7611420715427216 0.6485851886434459
50 26.31049377545839 1.1396758065653496 51.95336787428024 0.7143749016513803 0.23812496721712617 0.23812496721712617 0.0 0.0 0.5689873473401131 0.8223462765568174
51 36.0748870689136 40.053874399754726 43.06517010810162 0.7215544887737122 0.2405181629245708 0.2405181629245708 0.0 -0.0 0.9816329176571261 0.1907794930592849
52 1.875704414575357 56.03538999345336 58.00193131162635 0.7288062319462183 0.24293541064873944 0.24293541064873944 0.0 -0.0 0.8312938914163103 0.5558331279205367
53 27.337455459843458 19.989486881103044 53.75861053616729 0.7361308563492618 0.24537695211642047 0.24537695211642047 0.0 0.0 0.4937832216878833 0.8695850332081013
54 12.96844714219159 18.415583946669585 16.157381318416235 0.7435290944513822 0.2478430314837945 0.2478430314837945 0.0 -0.0 0.7425013715714329 0.6698445440656666
55 21.857741424345907 46.21595197211531 12.428457678292693 0.7435290944513822 0.2478430314837945 0.2478430314837945 0.0 -0.0 0.899222239431846 0.4374921303419936
56 32.29223609050921 35.41475864926465 60.662769807420354 0.7510016860825584 0.2503338953608528 0.2503338953608528 0.0 0.0 0.591041689671776 0.8066410112744902
57 47.178607102865264 11.041286218799181 44.79799293006222 0.7510016860825584 0.2503338953608528 0.2503338953608528 0.0 0.0 0.6906372933410847 0.7232013060320761
58 30.496335994632663 21.380107222592343 33.96954629627286 0.7585493785081798 0.25284979283605974 0.25284979283605974 0.0 -0.0 0.9778925487455288 0.20910801779935065
59 32.3026645014434 34.708131618907046 4.344317237104001 0.7585493785081798 0.25284979283605974 0.25284979283605974 0.0 -0.0 0.8334397726994561 0.5526103014626843
60 22.48831926917768 28.35586789009144 35.11367379647802 0.7661729265037789 0.2553909755012596 0.2553909755012596 0.0 -0.0 0.8251393648538317 0.5649292243888745
61 41.315741633007676 18.784046275018163 7.099675225352229 0.7661729265037789 0.2553909755012596 0.2553909755012596 0.0 -0.0 0.8342848482439009 0.5513336485202505
62 43.47012659538825 9.450481021993104 23.044435283721835 0.7738730924305083 0.25795769747683595 0.25795769747683595 0.0 0.0 0.6993489688984815 0.7147803996337831
63 30.7378103860945 35.27939147883557 24.006996907200485 0.7738730924305083 0.25795769747683595 0.25795769747683595 0.0 0.0 0.6638694557235675 0.747848477806363
64 13.515507766046783 40.532225112354425 22.367666136509563 0.7816506463113757 0.26055021543712586 0.26055021543712586 0.0 0.0 0.5469534661185369 0.8371630103515794
65 57.53100027241962 54.331513802996554 37.05301824737344 0.7816506463113757 0.26055021543712586 0.26055021543712586 0.0 0.0 0.534266604389083 0.8453160328744268
66 37.01825872248198 3.421521939008834 24.798824869543964 0.7895063659082547 0.2631687886360844 0.2631687886360844 0.0 0.0 0.49259387534365895 0.8702593142126752
67 55.20522311318893 7.1745878900413524 57.94060479973039 0.7895063659082547 0.2631687886360844 0.2631687886360844 0.0 -0.0 0.7991221049958454 0.6011687461162707
68 11.595092501047214 40.708886540120204 31.321195198251445 0.7974410367996468 0.26581367893321517 0.26581367893321517 0.0 -0.0 0.8113628171424923 0.5845428803420658
69 45.05226042915873 55.84827098932328 28.13744319530984 0.7974410367996468 0.26581367893321517 0.26581367893321517 0.0 0.0 0.69974083585519 0.7143967823532522
70 30.310776971366728 24.279243000446833 15.217085344837782 0.8054554524592544 0.26848515081975116 0.26848515081975116 0.0 -0.0 0.9226100212719841 0.3857340387475665
71 5.336844991365706 39.1848755869599 4.569011135908249 0.8054554524592544 0.26848515081975116 0.26848515081975116 0.0 -0.0 0.8908476943010929 0.4543020862360491
72 46.74277969647982 22.68713975517393 11.539707523506138 0.8135504143353228 0.2711834714451082 0.2711834714451082 0.0 -0.0 0.9180976465577227 0.39635427509384946
73 44.31456882446843 37.46990339852311 29.567866694819326 0.8135504143353228 0.2711834714451082 0.2711834714451082 0.0 0.0 0.6852526383261238 0.7283054453092375
74 60.679774257134355 18.896579562263543 24.9136153824698 0.821726731930788 0.27390891064359607 0.27390891064359607 0.0 0.0 0.6622208999947843 0.7493086677799063
75 37.61790685160797 26.890921983468942 51.42754322042792 0.821726731930788 0.27390891064359607 0.27390891064359607 0.0 0.0 0.6669694181073614 0.7450850926636016
76 14.30041753959716 60.82321340296692 10.609677828464637 0.8299852228842186 0.27666174096140617 0.27666174096140617 0.0 0.0 0.4849872773235938 0.8745212066235144
77 40.4678012440771 46.38555786807496 34.68678710095977 0.8299852228842186 0.27666174096140617 0.27666174096140617 0.0 -0.0 0.724549744492829 0.6892225096116464
78 48.500875630362465 27.852641530889393 55.52237263446263 0.8383267130515952 0.2794422376838651 0.2794422376838651 0.0 0.0 0.646327957303847 0.7630597431442944
79 24.6001163264961 59.023079963649245 58.85708547090538 0.8383267130515952 0.2794422376838651 0.2794422376838651 0.0 0.0 0.4210348644808628 0.9070444547493698
80 22.429441240898385 48.952507071080746 37.98550720507347 0.8467520365888849 0.2822506788629618 0.2822506788629618 0.0 0.0 0.5786941501693628 0.8155446527074768
81 13.791879075551279 32.81675072324837 29.188641599554217 0.8467520365888849 0.2822506788629618 0.2822506788629618 0.0 0.0 0.683142879342022 0.730284743373632
82 42.68322658649314 53.79318256995915 40.67157304761417 0.8552620360354628 0.2850873453451548 0.2850873453451548 0.0 0.0 0.3480344086077516 0.937481760049257
83 25.110213263638546 7.576819793871033 53.11986880252763 0.8552620360354628 0.2850873453451548 0.2850873453451548 0.0 -0.0 0.8280938516825816 0.560589486884571
84 53.622283908768985 3.693117880611727 6.963940936043954 0.8638575623983646 0.2879525207994552 0.2879525207994552 0.0 -0.0 0.8521868438699086 0.5232375972109076
85 55.37489974186482 43.56900924037115 59.15449907331705 0.8638575623983646 0.2879525207994552 0.2879525207994552 0.0 0.0 0.2683204071818837 0.9633297250109892
86 53.33071901044187 29.751409323438786 4.687302182966252 0.8725394752373901 0.290846491745797 0.290846491745797 0.0 0.0 0.5717525694490604 0.8204261083902665
87 47.89959133699357 40.26353220230056 47.84235857982722 0.8725394752373901 0.290846491745797 0.290846491745797 0.0 -0.0 0.7407334016199733 0.6717990977401677
88 12.987740188292406 19.147557854566745 54.958108048132395 0.8813086427510577 0.29376954758368656 0.29376954758368656 0.0 0.0 0.6524446383875427 0.7578363898885753
89 21.502047245296726 1.731514959233581 49.96343693930315 0.8813086427510577 0.29376954758368656 0.29376954758368656 0.0 0.0 0.3815125934194192 0.9243636411404275
90 33.498578537755286 39.954687533175836 35.325436070247974 0.8901659418634288 0.2967219806211431 0.2967219806211431 0.0 -0.0 0.7664413141092511 0.642314340511314
91 54.951516587680416 32.116137590911606 31.05832139862352 0.8901659418634288 0.2967219806211431 0.2967219806211431 0.0 -0.0 0.7164030651197486 0.6976866404676452
92 40.75602468737944 59.30087708189831 36.67738984785468 0.8991122583117905 0.29970408610393084 0.29970408610393084 0.0 0.0 0.3159382626609752 0.9487797500931208
93 24.490282014790953 20.671169737845275 22.636969276882006 0.8991122583117905 0.29970408610393084 0.29970408610393084 0.0 -0.0 0.807675111463051 0.5896277760783901
94 22.282580466119814 19.900022821261363 1.417163923576362 0.9081484867352492 0.3027161622450827 0.3027161622450827 0.0 0.0 0.5856043209472178 0.8105970511221638
95 28.625030787931422 47.43237373758502 54.49677283456033 0.9081484867352492 0.3027161622450827 0.3027161622450827 0.0 -0.0 0.8283891439806925 0.5601530381377355
96 25.297858267266992 41.23669039434902 33.21526547678532 0.9172755307641721 0.3057585102547236 0.3057585102547236 0.0 0.0 0.6380161188650698 0.7700230074928626
97 35.62536175995647 55.04148836607069 18.425026976248315 0.9172755307641721 0.3057585102547236 0.3057585102547236 0.0 0.0 0.5652655734899162 0.8249089837231233
98 15.962672447785314 9.20083040813638 19.259347033604648 0.9264943031105712 0.3088314343701903 0.3088314343701903 0.0 -0.0 0.9884337224668884 0.15165347437579585
99 52.5222324970624 26.447518673417985 55.86249433930254 0.9264943031105712 0.3088314343701903 0.3088314343701903 0.0 0.0 0.644584962479319 0.7645326848117973
100 33.67047452350819 39.46687785257574 34.196957486996375 0.9358057256593599 0.3119352418864538 0.3119352418864538 0.0 -0.0 0.7665764345255346 0.6421530736748979
101 26.11726495125508 43.051330059823904 7.504145262423988 0.9358057256593599 0.3119352418864538 0.3119352418864538 0.0 -0.0 0.7486465484609144 0.6629693397718779
102 6.665130683975741 20.981216172540034 35.844436425437266 0.94521072956056 0.3150702431868528 0.3150702431868528 0.0 -0.0 0.764238184631255 0.644934102952793
103 36.22632949549011 16.07973843484043 39.97160483754267 0.94521072956056 0.3150702431868528 0.3150702431868528 0.0 -0.0 0.7262700822056904 0.6874094614514261
104 19.851667823660957 34.02324837649656 15.384801154116142 0.95471025532239 0.3182367517741301 0.3182367517741301 0.0 0.0 0.6864264585310771 0.7271992278794606
105 55.285420782367645 45.01693762000236 11.522105803923822 0.95471025532239 0.3182367517741301 0.3182367517741301 0.0 -0.0 0.8498704758576332 0.5269916263713497
106 48.952211079402716 41.06237224900385 36.730713823381336 0.9643052529053479 0.3214350843017831 0.3214350843017831 0.0 -0.0 0.793590538753224 0.6084521811953406
107 33.023106105899835 32.55731826232399 30.459983520105865 0.9643052529053479 0.3214350843017831 0.3214350843017831 0.0 -0.0 0.8299364941277125 0.5578578812878792
108 53.521683766482546 21.930742371470448 42.07940398967621 0.9739966818171876 0.3246655606057297 0.3246655606057297 0.0 -0.0 0.7596155095013813 0.650372414640225
109 44.33636802120137 19.713685949237032 54.43434246349249 0.9739966818171876 0.3246655606057297 0.3246655606057297 0.0 -0.0 0.746179639226726 0.6657446552571586
110 25.33432062838437 6.933048040598798 52.83057395155624 0.983785511208877 0.32792850373629234 0.32792850373629234 0.0 -0.0 0.7434755474029917 0.6687631198068729
111 35.667257749445284 44.43492180180204 53.62274163567238 0.983785511208877 0.32792850373629234 0.32792850373629234 0.0 -0.0 0.7635489887521677 0.6457499065238353
112 44.88591850870541 39.103557523041566 17.438097194775107 0.993672719971508 0.33122423999050243 0.33122423999050243 0.0 -0.0 0.925703395166632 0.3782502137170186
113 49.699407475650744 39.43167907486643 20.502540537886357 0.993672719971508 0.33122423999050243 0.33122423999050243 0.0 -0.0 0.7476030998596368 0.6641457709571461
114 18.170773277286045 55.40549492665838 29.875988524536325 1.0036592968342006 0.33455309894473395 0.33455309894473395 0.0 -0.0 0.7095009508808979 0.7047044775642494
115 52.94102108046583 43.27722248386018 34.28648002247026 1.0036592968342006 0.33455309894473395 0.33455309894473395 0.0 0.0 0.692332939305712 0.7215782016887105
116 18.15844176908456 15.998380155635733 6.505135209908559 1.0137462404629654 0.3379154134876553 0.3379154134876553 0.0 0.0 0.4838188577050026 0.8751681626573412
117 26.161119484604725 1.3021685581770006 20.024612836817216 1.0137462404629654 0.3379154134876553 0.3379154134876553 0.0 0.0 0.4072390243389004 0.9133216175343166
118 28.246649020996173 52.897922404357054 12.674832430403157 1.023934559560565 0.3413115198535217 0.3413115198535217 0.0 -0.0 0.9854258972554679 0.17010526452245991
119 26.69358037093573 56.65143762778276 56.37373558843376 1.023934559560565 0.3413115198535217 0.3413115198535217 0.0 0.0 0.693566054094668 0.720393037589587
120 14.914231135266494 27.773920107225898 3.283950700010463 1.034225272967402 0.3447417576558008 0.3447417576558008 0.0 -0.0 0.8546373086497397 0.5192254526349123
121 11.381960618119562 26.899186994537803 5.732764473604459 1.034225272967402 0.3447417576558008 0.3447417576558008 0.0 -0.0 0.738138054050796 0.6746496966293722
122 35.0454895826672 3.5080917087299164 48.61700061807783 1.0446194097633934 0.3482064699211309 0.3482064699211309 0.0 0.0 0.30497028615780525 0.9523618663936657
123 4.3982590574170075 27.04165409049824 14.77706880221995 1.0446194097633934 0.3482064699211309 0.3482064699211309 0.0 -0.0 0.8240326158671573 0.5665423620411186
124 57.24346869010409 21.658348065195543 44.20560544855706 1.05511800937088 0.35170600312362676 0.35170600312362676 0.0 -0.0 0.7351480847541838 0.6779065521753388
125 11.884734295727462 28.034738551613536 58.81279068796813 1.05511800937088 0.35170600312362676 0.35170600312362676 0.0 0.0 0.6354145425399089 0.7721711980699606
126 15.1719596326717 53.75114949118912 26.893210283131243 1.0657221216585713 0.3552407072195237 0.3552407072195237 0.0 -0.0 0.9631928649301144 0.2688112812880415
127 53.90008163919438 42.69191321358756 36.76233972079511 1.0657221216585713 0.3552407072195237 0.3552407072195237 0.0 0.0 0.6645731125154195 0.7472232451694524
128 27.24836276253548 19.50545247340507 30.216539987527703 1.0764328070465339 0.35881093568217853 0.35881093568217853 0.0 -0.0 0.837305869343264 0.5467347447925007
129 35.039217362984616 7.251041600973488 57.00476995552471 1.0764328070465339 0.35881093568217853 0.35881093568217853 0.0 0.0 0.6718759690179156 0.7406636768846148
130 1.0370714675738109 39.20995748101803 25.540987351974906 1.0872511366122306 0.36241704553741033 0.36241704553741033 0.0 -0.0 0.8172568989423515 0.5762735124323614
131 37.02699135067337 28.189431559502356 29.028223279812206 1.0872511366122306 0.36241704553741033 0.36241704553741033 0.0 0.0 0.5650588956672867 0.8250505708302167
132 3.952386056571493 35.75056209546891 36.45362563845418 1.0981781921976357 0.3660593973992118 0.3660593973992118 0.0 0.0 0.5632303093681869 0.8262999568008076
133 31.780325027335152 19.700626055206598 5.008597268951195 1.0981781921976357 0.3660593973992118 0.3660593973992118 0.0 0.0 0.7047758212396541 0.7094300823872436
134 36.107491823857984 14.34207013776311 39.26890990723062 1.109215066517411 0.3697383555058035 0.3697383555058035 0.0 -0.0 0.7457546235329385 0.6662207152882933
135 41.29133228898299 23.85875547890619 30.847646757172058 1.109215066517411 0.3697383555058035 0.3697383555058035 0.0 0.0 0.5807371118896761 0.8140911539097067
136 45.20499103668408 36.98951304740732 32.13540561601771 1.1203628632681881 0.3734542877560623 0.3734542877560623 0.0 -0.0 0.7765636880913803 0.6300387593933514
137 52.18768822293189 0.04983792498776607 10.734107244571982 1.1203628632681881 0.3734542877560623 0.3734542877560623 0.0 -0.0 0.9207785641385271 0.39008567754147583
138 22.599806713962597 60.362735345140706 42.52039064836893 1.13162269723893 0.37720756574631004 0.37720756574631004 0.0 0.0 0.5933031767685688 0.8049790931672228
139 56.92794074953161 22.56767087456895 52.94223112584867 1.13162269723893 0.37720756574631004 0.37720756574631004 0.0 0.0 0.36293328461656904 0.9318151270061183
140 42.419149875207005 49.04842195832392 45.29420164344001 1.142995694422418 0.3809985648074729 0.3809985648074729 0.0 0.0 0.5657838974393875 0.8245535649054563
141 41.05161985023699 9.915294064261097 36.447721925635626 1.142995694422418 0.3809985648074729 0.3809985648074729 0.0 0.0 0.5898626798291705 0.8075035720941112
142 56.57164325047589 30.164720268013657 37.286711361801196 1.1544829921278479 0.38482766404261554 0.38482766404261554 0.0 0.0 0.494526605223718 0.8691624915548904
143 38.98491652860359 31.589700154135173 19.990722488602366 1.1544829921278479 0.38482766404261554 0.38482766404261554 0.0 0.0 0.6621201748514545 0.7493976741721844
144 60.71353587551846 38.13665675467565 30.339052478797576 1.1660857390945634 0.3886952463648536 0.3886952463648536 0.0 -0.0 0.8358120424685423 0.5490156916378287
145 8.044946181814957 7.485519039032205 34.67257997585201 1.1660857390945634 0.3886952463648536 0.3886952463648536 0.0 -0.0 0.7380766977143534 0.6747168208152773
146 43.86918471015914 6.230917480382869 47.68772240107548 1.1778050956069286 0.39260169853564336 0.39260169853564336 0.0 0.0 0.5600689403365469 0.8284460043179022
147 40.63059233916647 28.91561531155338 43.137038259036984 1.1778050956069286 0.39260169853564336 0.39260169853564336 0.0 -0.0 0.8053653384335279 0.5927787712543771
148 11.66954058776789 29.107433239080716 54.47884878195786 1.189642233610362 0.39654741120345444 0.39654741120345444 0.0 -0.0 0.9475491048281723 0.31961022189430877
149 36.21597826217505 43.022629698167414 24.9410312632618 1.189642233610362 0.39654741120345444 0.39654741120345444 0.0 -0.0 0.8855269061838191 0.46458809543994295
150 14.208477601219595 30.22419347303465 15.708372343555391 1.2015983368285297 0.40053277894284295 0.40053277894284295 0.0 -0.0 0.8997163709941051 0.43647502994466686
151 28.130832862294085 4.000210182161132 50.35114789384737 1.2015983368285297 0.40053277894284295 0.40053277894284295 0.0 0.0 0.6949034215940625 0.7191030765174521
152 0.9679504423781213 17.02767379068575 13.753852531577273 1.213674600881712 0.40455820029390505 0.40455820029390505 0.0 0.0 0.6496096252583186 0.7602679361723385
153 54.06317355246826 54.1032660429579 47.914042546643785 1.213674600881712 0.40455820029390505 0.40455820029390505 0.0 0.0 0.6980264017745981 0.7160720232110785
154 44.86703649044289 41.11018770549796 27.108316091135453 1.2258722334063852 0.4086240778021291 0.4086240778021291 0.0 -0.0 0.9126309719920443 0.4087844284716046
155 19.987215777948194 19.901997823247875 16.960849391361855 1.2258722334063852 0.4086240778021291 0.4086240778021291 0.0 0.0 0.34897032679986184 0.9371337743423815
156 49.89999292699349 12.193793803509191 7.272423436118178 1.2381924541759628 0.41273081805865475 0.41273081805865475 0.0 0.0 0.6995675014656925 0.7145665195718649
157 30.381585899978617 14.29082824714451 41.39477810755625 1.2381924541759628 0.41273081805865475 0.41273081805865475 0.0 0.0 0.63565327495599 0.7719746848425306
158 40.40513060985051 13.691596164992227 20.09739364702182 1.250636495222785 0.4168788317409292 0.4168788317409292 0.0 -0.0 0.7426985308561326 0.6696259345814963
159 12.841045836939653 28.84377868205205 27.79636745913756 1.250636495222785 0.4168788317409292 0.4168788317409292 0.0 0.0 0.4891044501540252 0.8722252213961303
160 46.22671566705811 27.606884743952037 10.97705760352841 1.263205600961333 0.42106853365377767 0.42106853365377767 0.0 0.0 0.6466947184788655 0.7627489371290798
161 26.452464697133298 19.78001831769153 44.19443404595844 1.263205600961333 0.42106853365377767 0.42106853365377767 0.0 0.0 0.6377575578887067 0.7702371695496348
162 59.78423284128234 44.545411613132124 58.18129996729122 1.275901028312651 0.4253003427708842 0.4253003427708842 0.0 0.0 0.6701572236966805 0.7422191694689361
163 41.93510687823308 26.700956667466915 38.135255467497096 1.275901028312651 0.4253003427708842 0.4253003427708842 0.0 -0.0 0.7797338016261434 0.6261111711203069
164 29.782055927628925 27.66651938590328 25.79759345503315 1.2887240468300551 0.42957468227668466 0.42957468227668466 0.0 0.0 0.6966086930688543 0.7174512727293072
165 53.61873115298478 55.52592169031565 11.880692948771319 1.2887240468300551 0.42957468227668466 0.42957468227668466 0.0 -0.0 0.8994069955971553 0.43711217813153935
2_T 28.59868765686976 -0.2169990684288905 27.719849354349456 0.4420433246650236 0.14734777488834122 0.14734777488834122 0.0 -0.0 0.8896314041555925 0.4566792799549252
56_F 32.29223609050921 35.41475864926465 -0.23723019257964495 0.7510016860825584 0.2503338953608528 0.2503338953608528 0.0 0.0 0.591041689671776 0.8066410112744902
74_L -0.22022574286564378 18.896579562263543 24.9136153824698 0.821726731930788 0.27390891064359607 0.27390891064359607 0.0 0.0 0.6622208999947843 0.7493086677799063
76_T 14.30041753959716 -0.07678659703307744 10.609677828464637 0.8299852228842186 0.27666174096140617 0.27666174096140617 0.0 0.0 0.4849872773235938 0.8745212066235144
137_B 52.18768822293189 60.94983792498776 10.734107244571982 1.1203628632681881 0.3734542877560623 0.3734542877560623 0.0 -0.0 0.9207785641385271 0.39008567754147583
138_T 22.599806713962597 -0.5372646548592925 42.52039064836893 1.13162269723893 0.37720756574631004 0.37720756574631004 0.0 0.0 0.5933031767685688 0.8049790931672228
144_L -0.18646412448153882 38.13665675467565 30.339052478797576 1.1660857390945634 0.3886952463648536 0.3886952463648536 0.0 -0.0 0.8358120424685423 0.5490156916378287
