ITEM: TIMESTEP
516
ITEM: NUMBER OF ATOMS
248
ITEM: BOX BOUNDS ff ff ff
0 60.9
60.9 0
60.9 0
ITEM: ATOMS id x y z AsphericalShapeX AsphericalShapeY AsphericalShapeZ OrientationX OrientationY OrientationZ OrientationW
1 49.271784052055196 41.02565746298211 22.690148495886767 3.6493939304657537 1.2164646434885895 1.2164646434885895 0.0 -0.0 0.7863642711635499 0.6177630881150306
2 9.255681794484726 18.11118134314777 22.88114586263298 3.6860709492228767 1.228690316407603 1.228690316407603 0.0 -0.0 0.8896314041555925 0.4566792799549252
3 12.379693752456294 18.213439779204624 59.24013243950596 3.7231165781465996 1.2410388593822186 1.2410388593822186 0.0 0.0 0.631512325711268 0.7753658378305981
4 16.649997355275836 45.81850097916245 49.16311823806985 3.7605345218308774 1.2535115072769565 1.2535115072769565 0.0 0.0 0.5765741652112841 0.8170448164029381
5 45.038380215533216 19.36022124354123 18.3612361085091 3.7983285221010568 1.2661095073670154 1.2661095073670154 0.0 -0.0 0.8873914294477543 0.4610167577677315
6 27.558771029077583 10.03970345451426 20.49479200951771 3.8365023583887234 1.2788341194629138 1.2788341194629138 0.0 0.0 0.643710445538684 0.7652691437033046
7 27.17364304084353 59.048289957862416 33.52296995359063 3.875059848109323 1.2916866160364384 1.2916866160364384 0.0 -0.0 0.7603958793842515 0.6494598575858641
8 45.833648004298375 32.19519253409594 17.16636498599823 3.914004847043946 1.3046682823479998 1.3046682823479998 0.0 -0.0 0.7854601334426244 0.6189122545016335
9 50.839811581202994 1.8210184886962109 52.29832788877321 3.9533412497250215 1.3177804165750087 1.3177804165750087 0.0 -0.0 0.7176002965020949 0.6964551776389529
10 48.06647299277292 11.855915249976796 10.953668723225604 3.9930729898254933 1.3310243299418354 1.3310243299418354 0.0 0.0 0.38534345666417513 0.9227732226317065
11 27.02154903175905 34.104676219411175 56.478062949875806 4.033204040552502 1.344401346850838 1.344401346850838 0.0 0.0 0.49983922045674145 0.866118209999765
12 4.206590328100858 12.86538434615344 25.132146616991427 4.073738415044544 1.357912805014867 1.357912805014867 0.0 0.0 0.2746680171135514 0.9615391205639581
13 6.274825189160148 48.14708966786182 17.597888620151664 4.114680166773023 1.3715600555909901 1.3715600555909901 0.0 -0.0 0.7886508549344257 0.614841303924191
14 16.338546878185515 29.79303655359274 27.251030121463348 4.15603338994697 1.385344463315635 1.385344463315635 0.0 -0.0 0.7750680292508737 0.6318777967559605
15 26.823716937495124 39.09154663385131 20.964775005900897 4.1978022199232665 1.3992674066411117 1.3992674066411117 0.0 0.0 0.6340811782098568 0.7732664866913604
16 12.168985003309635 30.326456724721197 54.03030666157931 4.239990833619879 1.4133302778732726 1.4133302778732726 0.0 -0.0 0.7629176367612683 0.6464956918020424
17 23.00131499769118 21.649532543173713 36.17798222271803 4.282603449933066 1.427534483311005 1.427534483311005 0.0 0.0 0.6579222258448839 0.7530858813836
18 37.287881006255574 36.30398266048685 17.01558208827231 4.325644330160119 1.441881443386695 1.441881443386695 0.0 0.0 0.506211649243881 0.8624092799650234
19 24.78357801401136 16.182847361151804 40.451407042470315 4.369117778424927 1.4563725928082945 1.4563725928082945 0.0 0.0 0.6434542777811493 0.7654845474633303
20 30.250935713426234 52.18779112504118 35.99951254831725 4.413028142108491 1.471009380702842 1.471009380702842 0.0 -0.0 0.7861857262579329 0.6179902942832407
21 43.48937454384713 21.52919612318869 46.05254880149547 4.4573798122838015 1.4857932707612496 1.4857932707612496 0.0 0.0 0.6069811502172251 0.7947162281474907
22 16.552661380372218 2.8666564655523805 28.261648780385208 4.502177224154808 1.5007257413849315 1.5007257413849315 0.0 -0.0 0.8910647246123514 0.45387625687131333
23 40.32636357141004 51.452414616874556 45.07067855682126 4.547424857500134 1.515808285833393 1.515808285833393 0.0 -0.0 0.7582829367961579 0.651925599868416
24 28.82160824736271 0.7182961986367047 48.513212275010865 4.593127237120702 1.5310424123735684 1.5310424123735684 0.0 0.0 0.5255054740936084 0.8507902189715464
25 18.64355296665679 58.940776392714405 48.14202743157748 4.639288933292677 1.5464296444308707 1.5464296444308707 0.0 0.0 0.6637035342538496 0.7479957343587923
26 1.2757274769028029 53.07830909335444 28.32090529795051 4.685914562223926 1.5619715207413196 1.5619715207413196 0.0 0.0 0.5361151400853296 0.8441448670526212
27 60.84615709709654 25.66522375734303 27.12688514351292 4.733008786516416 1.5776695955054723 1.5776695955054723 0.0 -0.0 0.7297620279401082 0.6837012378054764
28 21.016959287641406 33.690723237843585 31.79524370763038 4.78057631563175 1.5935254385439002 1.5935254385439002 0.0 -0.0 0.9828164757017253 0.18458541407500267
29 46.01990642432502 33.084312242002305 29.595484320378432 4.828621906362479 1.6095406354541755 1.6095406354541755 0.0 -0.0 0.8740853421614372 0.4857723897243679
30 17.227715696513414 58.545752061240606 31.841596050327777 4.877150363307691 1.6257167877692458 1.6257167877692458 0.0 -0.0 0.8433777540022546 0.5373210995802349
31 53.55556877892421 55.10838569807183 38.05395261105101 4.926166539353511 1.6420555131178667 1.6420555131178667 0.0 0.0 0.6952778540174372 0.7187410560924617
32 55.81921700766919 34.42617609399593 34.58150451288592 4.975675336158475 1.6585584453861728 1.6585584453861728 0.0 0.0 0.6353234605105568 0.7722461398575527
33 24.252974320303572 32.93259112537572 25.361037540338916 5.025681704643457 1.6752272348811332 1.6752272348811332 0.0 0.0 0.6411270229476993 0.7674347792784871
34 24.109328122185875 13.636724159725956 20.48843545884086 5.076190645486915 1.6920635484956694 1.6920635484956694 0.0 -0.0 0.7453722743584635 0.6666484625480594
35 24.556449903970773 52.54411259979164 42.542097763466415 5.127207209625171 1.7090690698750772 1.7090690698750772 0.0 -0.0 0.7109313362059317 0.7032614273514853
36 37.86780415959905 0.16631621368581295 0.0738006115802618 5.178736498757021 1.726245499585705 1.726245499585705 0.0 -0.0 0.739632735620696 0.6730107104632479
37 18.425534928696326 2.314683225088676 13.641454621563831 5.230783665854487 1.7435945552848438 1.7435945552848438 0.0 0.0 0.5163603530767541 0.8563714064414165
38 17.935270279685927 9.720524730714912 21.551993560112127 5.283353915677439 1.7611179718924574 1.7611179718924574 0.0 0.0 0.5145463711011363 0.8574625542766586
39 9.610884760552018 29.852635429897386 22.08509586632545 5.33645250529477 1.7788175017649235 1.7788175017649235 0.0 0.0 0.5880831456971182 0.8088004783300898
40 0.7386941537383716 25.126662122149536 16.012571100002454 5.390084744609771 1.7966949148699003 1.7966949148699003 0.0 -0.0 0.8608342640850161 0.5088854191045453
41 21.906421138905177 7.002470438294742 36.74777505263281 5.444255996890871 1.8147519989636105 1.8147519989636105 0.0 0.0 0.5813114541301716 0.8136811373609846
42 14.611818728433272 13.49000028115619 39.03750789908788 5.498971679308553 1.8329905597695382 1.8329905597695382 0.0 0.0 0.6858728758951139 0.7277213739552836
43 0.3835158295928185 46.02837439561606 37.41075535947249 5.554237263476781 1.8514124211589162 1.8514124211589162 0.0 -0.0 0.8971229945165649 0.4417808650333688
44 48.49789486994801 11.597417254740302 28.74770542624999 5.610058275999823 1.8700194253332585 1.8700194253332585 0.0 -0.0 0.7662793896249596 0.6425075073771507
45 40.46898692430103 39.50827380208445 38.05173940774137 5.666440299025577 1.8888134330085022 1.8888134330085022 0.0 -0.0 0.8021859139948743 0.5970743332184094
46 15.568325971999334 35.133509089159936 19.11980112883186 5.7233889708031525 1.9077963236010742 1.9077963236010742 0.0 0.0 0.6689296931602822 0.7433256793683982
47 47.50207626656849 22.959070668980704 14.997095016223492 5.780909986247449 1.9269699954158166 1.9269699954158166 0.0 -0.0 0.8121614142020023 0.5834328044268712
48 56.59121158884645 46.4542752814772 19.22772405190617 5.839009097507806 1.9463363658359365 1.9463363658359365 0.0 0.0 0.43861391052531945 0.8986756019241242
49 23.469843398468786 7.318085314439528 6.854128395240983 5.8976921145436965 1.9658973715145809 1.9658973715145809 0.0 -0.0 0.7611420715427216 0.6485851886434459
50 26.67144793857798 14.19486128397857 55.96518056666629 5.956964905705869 1.9856549685686071 1.9856549685686071 0.0 0.0 0.5689873473401131 0.8223462765568174
51 45.84147148839313 29.104153780200008 40.076993642586324 6.016833398322774 2.005611132774232 2.005611132774232 0.0 -0.0 0.9816329176571261 0.1907794930592849
52 35.10678799271436 24.89947277306033 22.26398677312981 6.077303579293531 2.0257678597644735 2.0257678597644735 0.0 -0.0 0.8312938914163103 0.5558331279205367
53 10.895353118462637 57.28562144637436 6.254904792629648 6.138381495686526 2.04612716522888 2.04612716522888 0.0 0.0 0.4937832216878833 0.8695850332081013
54 27.801952399789528 53.553966944250625 39.92157044603731 6.200073255344547 2.0666910851148463 2.0666910851148463 0.0 -0.0 0.7425013715714329 0.6698445440656666
55 22.698222076652765 43.081936537320715 11.657276248492945 6.200073255344547 2.0666910851148463 2.0666910851148463 0.0 -0.0 0.899222239431846 0.4374921303419936
56 37.65906414231221 13.249460656960023 20.828865797446486 6.262385027494869 2.0874616758316145 2.0874616758316145 0.0 0.0 0.591041689671776 0.8066410112744902
57 52.27874773696562 60.73761758865069 56.19929152069516 6.262385027494869 2.0874616758316145 2.0874616758316145 0.0 0.0 0.6906372933410847 0.7232013060320761
58 25.750566937417354 37.16106216312757 35.43679718928608 6.325323043366565 2.108441014455518 2.108441014455518 0.0 -0.0 0.9778925487455288 0.20910801779935065
59 27.902487952963543 54.38505453915774 22.45788419588824 6.325323043366565 2.108441014455518 2.108441014455518 0.0 -0.0 0.8334397726994561 0.5526103014626843
60 43.132420445289206 25.471061774073203 55.66398271450326 6.388893596813854 2.129631198937923 2.129631198937923 0.0 -0.0 0.8251393648538317 0.5649292243888745
61 10.620645436555566 3.375065806032063 42.368092603489586 6.388893596813854 2.129631198937923 2.129631198937923 0.0 -0.0 0.8342848482439009 0.5513336485202505
62 16.17327010217856 0.11078727519376308 42.84762565788601 6.453103044944762 2.151034348314894 2.151034348314894 0.0 0.0 0.6993489688984815 0.7147803996337831
63 32.501667909783265 0.1949661077307136 51.53065863246631 6.453103044944762 2.151034348314894 2.151034348314894 0.0 0.0 0.6638694557235675 0.747848477806363
64 39.35798756225231 33.72795974704638 43.8258667613549 6.517957808757839 2.172652602919271 2.172652602919271 0.0 0.0 0.5469534661185369 0.8371630103515794
65 17.23734240984888 19.41900883034073 5.115483500366645 6.517957808757839 2.172652602919271 2.172652602919271 0.0 0.0 0.534266604389083 0.8453160328744268
66 28.694463407247756 2.0891890398956807 28.096273996078963 6.583464373783276 2.1944881245944545 2.1944881245944545 0.0 0.0 0.49259387534365895 0.8702593142126752
67 58.19218155850299 22.6082894226244 7.908170686322925 6.583464373783276 2.1944881245944545 2.1944881245944545 0.0 -0.0 0.7991221049958454 0.6011687461162707
68 42.52233935959361 40.376018602506974 20.496294509247697 6.6496292907325545 2.2165430969108617 2.2165430969108617 0.0 -0.0 0.8113628171424923 0.5845428803420658
69 32.03263891252322 12.753639957411611 55.93976544950994 6.6496292907325545 2.2165430969108617 2.2165430969108617 0.0 0.0 0.69974083585519 0.7143967823532522
70 9.129938175023549 59.159317144684266 18.41456644232507 6.716459176152203 2.238819725384055 2.238819725384055 0.0 -0.0 0.9226100212719841 0.3857340387475665
71 20.802616358419648 60.400917478593485 24.48364437808277 6.716459176152203 2.238819725384055 2.238819725384055 0.0 -0.0 0.8908476943010929 0.4543020862360491
72 5.00228874428349 44.184209528918224 8.333027217169072 6.783960713086465 2.2613202376955113 2.2613202376955113 0.0 -0.0 0.9180976465577227 0.39635427509384946
73 40.35229739635439 35.57271352313884 29.090484044930317 6.783960713086465 2.2613202376955113 2.2613202376955113 0.0 0.0 0.6852526383261238 0.7283054453092375
74 41.22612632539654 21.878602584636585 14.37007093311841 6.852140651745475 2.2840468839151615 2.2840468839151615 0.0 0.0 0.6622208999947843 0.7493086677799063
75 56.776594551541116 47.62869436263419 43.0528575965487 6.852140651745475 2.2840468839151615 2.2840468839151615 0.0 0.0 0.6669694181073614 0.7450850926636016
76 54.51262996353517 7.6663230057789065 31.660748011470105 6.9210058101796585 2.307001936726596 2.307001936726596 0.0 0.0 0.4849872773235938 0.8745212066235144
77 20.36234498680166 45.11506284131379 15.843522136105621 6.9210058101796585 2.307001936726596 2.307001936726596 0.0 -0.0 0.724549744492829 0.6892225096116464
78 2.722977975527139 15.561866389151287 13.012966908016404 6.990563074962495 2.330187691654165 2.330187691654165 0.0 0.0 0.646327957303847 0.7630597431442944
79 10.150664000233691 12.34388625891454 29.343216964033044 6.990563074962495 2.330187691654165 2.330187691654165 0.0 0.0 0.4210348644808628 0.9070444547493698
80 51.28587076401719 9.76582888396917 18.079003341004785 7.060819401878378 2.353606467292758 2.353606467292758 0.0 0.0 0.5786941501693628 0.8155446527074768
81 53.73625278708841 44.06845736623619 22.96058665253539 7.060819401878378 2.353606467292758 2.353606467292758 0.0 0.0 0.683142879342022 0.730284743373632
82 12.149062481074267 4.813298060038984 3.8714063323496664 7.131781816618351 2.3772606055394143 2.3772606055394143 0.0 0.0 0.3480344086077516 0.937481760049257
83 18.43460559526202 52.049837887773414 1.797377801323604 7.131781816618351 2.3772606055394143 2.3772606055394143 0.0 -0.0 0.8280938516825816 0.560589486884571
84 33.86541954727221 12.292095048139466 6.767322562637398 7.203457415483073 2.4011524718277255 2.4011524718277255 0.0 -0.0 0.8521868438699086 0.5232375972109076
85 20.66790004290707 40.54126500029917 29.079140632968894 7.203457415483073 2.4011524718277255 2.4011524718277255 0.0 0.0 0.2683204071818837 0.9633297250109892
86 6.140023332829602 2.3020852520375072 59.90418844756584 7.275853366092385 2.4252844553641366 2.4252844553641366 0.0 0.0 0.5717525694490604 0.8204261083902665
87 8.83851993410726 49.644310809757144 47.220379881826496 7.275853366092385 2.4252844553641366 2.4252844553641366 0.0 -0.0 0.7407334016199733 0.6717990977401677
88 32.46644375159258 49.357815200699676 54.17914423189851 7.348976908101629 2.4496589693671726 2.4496589693671726 0.0 0.0 0.6524446383875427 0.7578363898885753
89 38.542398637602034 25.207758536444302 49.907400485124434 7.348976908101629 2.4496589693671726 2.4496589693671726 0.0 0.0 0.3815125934194192 0.9243636411404275
90 20.577474596888457 12.316441871652755 47.0517777818532 7.422835353925755 2.4742784513085545 2.4742784513085545 0.0 -0.0 0.7664413141092511 0.642314340511314
91 38.73826887105433 60.79863299269101 27.39044459794858 7.422835353925755 2.4742784513085545 2.4742784513085545 0.0 -0.0 0.7164030651197486 0.6976866404676452
92 49.023863175537855 16.028148501046374 40.05269177083052 7.497436089470861 2.4991453631569516 2.4991453631569516 0.0 0.0 0.3159382626609752 0.9487797500931208
93 19.29307896988269 36.676379391102046 41.764670886738024 7.497436089470861 2.4991453631569516 2.4991453631569516 0.0 -0.0 0.807675111463051 0.5896277760783901
94 51.112742464568775 16.310660148237798 49.39367486798961 7.57278657487287 2.5242621916243198 2.5242621916243198 0.0 0.0 0.5856043209472178 0.8105970511221638
95 44.253881374462004 57.400906041527925 54.73645278314687 7.57278657487287 2.5242621916243198 2.5242621916243198 0.0 -0.0 0.8283891439806925 0.5601530381377355
96 39.88206728481533 8.836722257130258 41.851077362796175 7.648894345243103 2.5496314484144134 2.5496314484144134 0.0 0.0 0.6380161188650698 0.7700230074928626
97 27.97638261221598 16.049937873613935 27.597612210799685 7.648894345243103 2.5496314484144134 2.5496314484144134 0.0 0.0 0.5652655734899162 0.8249089837231233
98 17.76071604432932 23.512809049148004 40.63010434080805 7.72576701142205 2.5752556704739824 2.5752556704739824 0.0 -0.0 0.9884337224668884 0.15165347437579585
99 51.383257543864474 38.930284811774854 7.796884157863639 7.72576701142205 2.5752556704739824 2.5752556704739824 0.0 0.0 0.644584962479319 0.7645326848117973
100 32.71826225924129 30.555068227324654 53.90643464552283 7.8034122607401075 2.6011374202467383 2.6011374202467383 0.0 -0.0 0.7665764345255346 0.6421530736748979
101 13.990945499412877 33.315960993821484 60.794922553096036 7.8034122607401075 2.6011374202467383 2.6011374202467383 0.0 -0.0 0.7486465484609144 0.6629693397718779
102 42.50211622925179 40.12069447056026 13.000739837307062 7.881837857787149 2.6272792859290934 2.6272792859290934 0.0 -0.0 0.764238184631255 0.644934102952793
103 26.73022356866417 46.987752857412254 2.5598629737054264 7.881837857787149 2.6272792859290934 2.6272792859290934 0.0 -0.0 0.7262700822056904 0.6874094614514261
104 46.03063375927773 2.2612667704304386 49.82070588480569 7.961051645188402 2.653683881729418 2.653683881729418 0.0 0.0 0.6864264585310771 0.7271992278794606
105 19.320493193159475 50.1576601030041 10.600982891888341 7.961051645188402 2.653683881729418 2.653683881729418 0.0 -0.0 0.8498704758576332 0.5269916263713497
106 16.322152482874124 16.54640429096048 55.49752792683374 8.041061544388178 2.680353848129394 2.680353848129394 0.0 -0.0 0.793590538753224 0.6084521811953406
107 39.76107849797043 59.069867403884444 21.434876998561226 8.041061544388178 2.680353848129394 2.680353848129394 0.0 -0.0 0.8299364941277125 0.5578578812878792
108 47.63197938326186 51.177942600110285 2.273887199663889 8.12187555644339 2.707291852147751 2.707291852147751 0.0 -0.0 0.7596155095013813 0.650372414640225
109 59.86926916349666 38.65023607290123 2.5745684474912403 8.12187555644339 2.707291852147751 2.707291852147751 0.0 -0.0 0.746179639226726 0.6657446552571586
110 43.277151585160894 12.653406583274293 52.47161850535954 8.203501762822437 2.7345005876074344 2.7345005876074344 0.0 -0.0 0.7434755474029917 0.6687631198068729
111 32.29338556063637 37.465246833746896 21.130175230566795 8.203501762822437 2.7345005876074344 2.7345005876074344 0.0 -0.0 0.7635489887521677 0.6457499065238353
112 49.44522893260691 57.1857463866594 15.751740169803782 8.285948326213978 2.7619827754047077 2.7619827754047077 0.0 -0.0 0.925703395166632 0.3782502137170186
113 15.60655538510573 6.606666079268525 10.00746760259529 8.285948326213978 2.7619827754047077 2.7619827754047077 0.0 -0.0 0.7476030998596368 0.6641457709571461
114 12.412587650885062 58.55837835480294 33.88085066320242 8.369223491343261 2.789741163781081 2.789741163781081 0.0 -0.0 0.7095009508808979 0.7047044775642494
115 26.665102444173264 12.410515595973475 50.62059364493443 8.369223491343261 2.789741163781081 2.789741163781081 0.0 0.0 0.692332939305712 0.7215782016887105
116 7.276297597541876 26.46472612895124 55.08626139580056 8.453335585796076 2.817778528598673 2.817778528598673 0.0 0.0 0.4838188577050026 0.8751681626573412
117 49.038154755199834 41.09362090178722 30.682917377250526 8.453335585796076 2.817778528598673 2.817778528598673 0.0 0.0 0.4072390243389004 0.9133216175343166
118 42.99003130564184 20.549734795835594 59.87385738320728 8.53829302085176 2.846097673617255 2.846097673617255 0.0 -0.0 0.9854258972554679 0.17010526452245991
119 35.740138440734896 33.1260211683693 59.81558334600162 8.53829302085176 2.846097673617255 2.846097673617255 0.0 0.0 0.693566054094668 0.720393037589587
120 29.328335989723154 26.68212702302368 32.37171205672781 8.624104292324935 2.874701430774969 2.874701430774969 0.0 -0.0 0.8546373086497397 0.5192254526349123
121 4.423355352775921 48.12424227375951 56.391939459865874 8.624104292324935 2.874701430774969 2.874701430774969 0.0 -0.0 0.738138054050796 0.6746496966293722
122 52.434685734236645 32.656951687147135 60.39439209350288 8.710777981414065 2.903592660471382 2.903592660471382 0.0 0.0 0.30497028615780525 0.9523618663936657
123 43.19340553512426 40.37707234277564 51.99659569834052 8.710777981414065 2.903592660471382 2.903592660471382 0.0 -0.0 0.8240326158671573 0.5665423620411186
124 6.744357616141646 44.728876025151536 3.5770919766256046 8.79832275556049 2.9327742518534894 2.9327742518534894 0.0 -0.0 0.7351480847541838 0.6779065521753388
125 60.85819898088118 52.7445083525356 51.69683024823039 8.79832275556049 2.9327742518534894 2.9327742518534894 0.0 0.0 0.6354145425399089 0.7721711980699606
126 30.047827496751083 0.5958234173288393 43.781617832029234 8.8867473693143 2.9622491231047747 2.9622491231047747 0.0 -0.0 0.9631928649301144 0.2688112812880415
127 53.74153752634981 28.911650879180147 42.4424311550539 8.8867473693143 2.9622491231047747 2.9622491231047747 0.0 0.0 0.6645731125154195 0.7472232451694524
128 10.92539239088319 43.41541200901051 51.87536857686203 8.976060665210568 2.9920202217368543 2.9920202217368543 0.0 -0.0 0.837305869343264 0.5467347447925007
129 40.07090724690486 59.609654786312944 10.895660851646582 8.976060665210568 2.9920202217368543 2.9920202217368543 0.0 0.0 0.6718759690179156 0.7406636768846148
130 29.77746312619137 39.16732640659057 11.469149131093824 9.06627157465367 3.0220905248845327 3.0220905248845327 0.0 -0.0 0.8172568989423515 0.5762735124323614
131 5.017906102516181 18.513644626899882 38.104513208267164 9.06627157465367 3.0220905248845327 3.0220905248845327 0.0 0.0 0.5650588956672867 0.8250505708302167
132 25.14352534890605 0.02620205173850987 56.064955224549315 9.157389118809387 3.0524630396031216 3.0524630396031216 0.0 0.0 0.5632303093681869 0.8262999568008076
133 22.072679160141135 49.27992472992735 37.548958127845104 9.157389118809387 3.0524630396031216 3.0524630396031216 0.0 0.0 0.7047758212396541 0.7094300823872436
134 60.23608021254972 35.50960919052855 43.84393369898458 9.249422409508044 3.0831408031693384 3.0831408031693384 0.0 -0.0 0.7457546235329385 0.6662207152882933
135 41.558372059159446 47.651943788101256 60.43335330329777 9.249422409508044 3.0831408031693384 3.0831408031693384 0.0 0.0 0.5807371118896761 0.8140911539097067
136 16.00384380387605 60.820382261548446 60.00510850612975 9.342380650155667 3.114126883385225 3.114126883385225 0.0 -0.0 0.7765636880913803 0.6300387593933514
137 4.659594200641881 42.317601839330784 24.58460068242189 9.342380650155667 3.114126883385225 3.114126883385225 0.0 -0.0 0.9207785641385271 0.39008567754147583
138 50.68957906367389 26.672988580116193 20.261185744009985 9.436273136653632 3.1454243788845115 3.1454243788845115 0.0 0.0 0.5933031767685688 0.8049790931672228
139 2.2579849565349424 18.558951018740512 2.340295325263989 9.436273136653632 3.1454243788845115 3.1454243788845115 0.0 0.0 0.36293328461656904 0.9318151270061183
140 2.8566921417687947 60.03397355199137 41.67169610023623 9.53110925832896 3.1770364194429805 3.1770364194429805 0.0 0.0 0.5657838974393875 0.8245535649054563
141 21.998157447076114 46.76085629628903 56.30916391957451 9.53110925832896 3.1770364194429805 3.1770364194429805 0.0 0.0 0.5898626798291705 0.8075035720941112
142 7.036328477290119 27.887845818862097 2.4100239887721138 9.626898498872455 3.2089661662908644 3.2089661662908644 0.0 0.0 0.494526605223718 0.8691624915548904
143 32.314955355137805 57.549223388134955 60.16114749788643 9.626898498872455 3.2089661662908644 3.2089661662908644 0.0 0.0 0.6621201748514545 0.7493976741721844
144 13.081573962425658 34.17247016520085 47.24356807403262 9.723650437288507 3.2412168124295366 3.2412168124295366 0.0 -0.0 0.8358120424685423 0.5490156916378287
145 7.34084967203318 29.92078036324853 13.044633195164032 9.723650437288507 3.2412168124295366 3.2412168124295366 0.0 -0.0 0.7380766977143534 0.6747168208152773
146 24.843535354490538 52.05423378225736 49.218446336528785 9.821374748851273 3.273791582950453 3.273791582950453 0.0 0.0 0.5600689403365469 0.8284460043179022
147 38.20886852054276 20.50492747488829 33.82011353150476 9.821374748851273 3.273791582950453 3.273791582950453 0.0 -0.0 0.8053653384335279 0.5927787712543771
148 54.672252489544775 21.8733577404319 55.168958740598804 9.920081206073542 3.306693735357861 3.306693735357861 0.0 -0.0 0.9475491048281723 0.31961022189430877
149 46.546444312293666 56.74342321914311 22.388521555264834 9.920081206073542 3.306693735357861 3.306693735357861 0.0 -0.0 0.8855269061838191 0.46458809543994295
150 18.076073417963467 21.695825156243227 21.200444153204025 10.01977967968312 3.3399265598943755 3.3399265598943755 0.0 -0.0 0.8997163709941051 0.43647502994466686
151 30.441868287848386 36.28110767609165 40.61954545937595 10.01977967968312 3.3399265598943755 3.3399265598943755 0.0 0.0 0.6949034215940625 0.7191030765174521
152 58.48718028542002 6.243184053642324 1.9605306932216313 10.120480139610533 3.373493379870156 3.373493379870156 0.0 0.0 0.6496096252583186 0.7602679361723385
153 32.86707265255304 30.771500494353468 7.629442161386763 10.120480139610533 3.373493379870156 3.373493379870156 0.0 0.0 0.6980264017745981 0.7160720232110785
154 41.1358085701323 12.277358310412438 3.8477879332580205 10.2221926559855 3.4073975519951443 3.4073975519951443 0.0 -0.0 0.9126309719920443 0.4087844284716046
155 17.66413723420245 40.811941977702155 5.026417751685492 10.2221926559855 3.4073975519951443 3.4073975519951443 0.0 0.0 0.34897032679986184 0.9371337743423815
156 33.11673822332003 40.27235340770767 47.22331102012142 10.324927400144766 3.4416424667148706 3.4416424667148706 0.0 0.0 0.6995675014656925 0.7145665195718649
157 25.621626853943102 23.77962093790792 45.7519120635354 10.324927400144766 3.4416424667148706 3.4416424667148706 0.0 0.0 0.63565327495599 0.7719746848425306
158 50.52915607884608 1.6527447964601651 41.608892862614 10.42869464564816 3.4762315485493764 3.4762315485493764 0.0 -0.0 0.7426985308561326 0.6696259345814963
159 20.860598589366973 23.811524435145298 8.45869154749373 10.42869464564816 3.4762315485493764 3.4762315485493764 0.0 0.0 0.4891044501540252 0.8722252213961303
160 52.09072081581672 0.6505147848925461 7.987686015927911 10.53350476930666 3.511168256435582 3.511168256435582 0.0 0.0 0.6466947184788655 0.7627489371290798
161 29.981827165742796 12.57894731655432 36.276073177016364 10.53350476930666 3.511168256435582 3.511168256435582 0.0 0.0 0.6377575578887067 0.7702371695496348
162 1.0963965332685248 52.75485212349857 13.852821646196247 10.639368252219976 3.546456084073297 3.546456084073297 0.0 0.0 0.6701572236966805 0.7422191694689361
163 45.471131805813314 4.156392845752785 33.70484353132535 10.639368252219976 3.546456084073297 3.546456084073297 0.0 -0.0 0.7797338016261434 0.6261111711203069
164 46.61346965161951 42.80515807662192 37.703097860170764 10.746295680824787 3.5820985602749285 3.5820985602749285 0.0 0.0 0.6966086930688543 0.7174512727293072
165 1.97446181996772 36.34772502510105 17.88316112273185 10.746295680824787 3.5820985602749285 3.5820985602749285 0.0 -0.0 0.8994069955971553 0.43711217813153935
7_T 27.17364304084353 -1.851710042137583 33.52296995359063 3.875059848109323 1.2916866160364384 1.2916866160364384 0.0 -0.0 0.7603958793842515 0.6494598575858641
9_B 50.839811581202994 62.72101848869621 52.29832788877321 3.9533412497250215 1.3177804165750087 1.3177804165750087 0.0 -0.0 0.7176002965020949 0.6964551776389529
22_B 16.552661380372218 63.76665646555238 28.261648780385208 4.502177224154808 1.5007257413849315 1.5007257413849315 0.0 -0.0 0.8910647246123514 0.45387625687131333
24_B 28.82160824736271 61.618296198636706 48.513212275010865 4.593127237120702 1.5310424123735684 1.5310424123735684 0.0 0.0 0.5255054740936084 0.8507902189715464
25_T 18.64355296665679 -1.959223607285594 48.14202743157748 4.639288933292677 1.5464296444308707 1.5464296444308707 0.0 0.0 0.6637035342538496 0.7479957343587923
26_R 62.1757274769028 53.07830909335444 28.32090529795051 4.685914562223926 1.5619715207413196 1.5619715207413196 0.0 0.0 0.5361151400853296 0.8441448670526212
27_L -0.05384290290346172 25.66522375734303 27.12688514351292 4.733008786516416 1.5776695955054723 1.5776695955054723 0.0 -0.0 0.7297620279401082 0.6837012378054764
30_T 17.227715696513414 -2.354247938759393 31.841596050327777 4.877150363307691 1.6257167877692458 1.6257167877692458 0.0 -0.0 0.8433777540022546 0.5373210995802349
36_FB 37.86780415959905 61.06631621368581 0.0738006115802618 5.178736498757021 1.726245499585705 1.726245499585705 0.0 -0.0 0.739632735620696 0.6730107104632479
36_BT 37.86780415959905 0.16631621368581295 60.97380061158026 5.178736498757021 1.726245499585705 1.726245499585705 0.0 -0.0 0.739632735620696 0.6730107104632479
36_BB 37.86780415959905 61.06631621368581 60.97380061158026 5.178736498757021 1.726245499585705 1.726245499585705 0.0 -0.0 0.739632735620696 0.6730107104632479
37_B 18.425534928696326 63.21468322508868 13.641454621563831 5.230783665854487 1.7435945552848438 1.7435945552848438 0.0 0.0 0.5163603530767541 0.8563714064414165
40_R 61.63869415373837 25.126662122149536 16.012571100002454 5.390084744609771 1.7966949148699003 1.7966949148699003 0.0 -0.0 0.8608342640850161 0.5088854191045453
43_R 61.283515829592815 46.02837439561606 37.41075535947249 5.554237263476781 1.8514124211589162 1.8514124211589162 0.0 -0.0 0.8971229945165649 0.4417808650333688
53_T 10.895353118462637 -3.6143785536256416 6.254904792629648 6.138381495686526 2.04612716522888 2.04612716522888 0.0 0.0 0.4937832216878833 0.8695850332081013
57_T 52.27874773696562 -0.16238241134930576 56.19929152069516 6.262385027494869 2.0874616758316145 2.0874616758316145 0.0 0.0 0.6906372933410847 0.7232013060320761
61_B 10.620645436555566 64.27506580603206 42.368092603489586 6.388893596813854 2.129631198937923 2.129631198937923 0.0 -0.0 0.8342848482439009 0.5513336485202505
62_B 16.17327010217856 61.01078727519376 42.84762565788601 6.453103044944762 2.151034348314894 2.151034348314894 0.0 0.0 0.6993489688984815 0.7147803996337831
63_B 32.501667909783265 61.09496610773071 51.53065863246631 6.453103044944762 2.151034348314894 2.151034348314894 0.0 0.0 0.6638694557235675 0.747848477806363
66_B 28.694463407247756 62.98918903989568 28.096273996078963 6.583464373783276 2.1944881245944545 2.1944881245944545 0.0 0.0 0.49259387534365895 0.8702593142126752