ITEM: TIMESTEP
99
ITEM: NUMBER OF ATOMS
173
ITEM: BOX BOUNDS ff ff ff
0 60.9
60.9 0
60.9 0
ITEM: ATOMS id x y z AsphericalShapeX AsphericalShapeY AsphericalShapeZ OrientationX OrientationY OrientationZ OrientationW
1 36.70061782498849 10.430857512385469 6.867329878260346 0.7058789033782844 0.23529296779276082 0.23529296779276082 0.0 -0.0 0.7863642711635499 0.6177630881150306
2 26.983227826604637 1.3137061088016582 27.315737853942366 0.7129731042984236 0.23765770143280845 0.23765770143280845 0.0 -0.0 0.8896314041555925 0.4566792799549252
3 17.462906941599424 21.325102483435746 48.68929922601533 0.7201386031231429 0.24004620104104707 0.24004620104104707 0.0 0.0 0.631512325711268 0.7753658378305981
4 36.25784930998652 33.3810671152818 27.09648711816105 0.7273761164082878 0.24245870546942896 0.24245870546942896 0.0 0.0 0.5765741652112841 0.8170448164029381
5 11.770663588676607 25.599163194336708 41.39803572246673 0.7346863679112265 0.2448954559704086 0.2448954559704086 0.0 -0.0 0.8873914294477543 0.4610167577677315
6 22.85762514917122 18.78493269685559 14.813978506314443 0.7420700886631935 0.24735669622106482 0.24735669622106482 0.0 0.0 0.643710445538684 0.7652691437033046
7 57.54916750816993 4.171482418896632 17.531818322595438 0.7495280170424221 0.24984267234747434 0.24984267234747434 0.0 -0.0 0.7603958793842515 0.6494598575858641
8 47.07420572128968 40.271229386385066 60.380803813512486 0.7570608988479618 0.2523536329493205 0.2523536329493205 0.0 -0.0 0.7854601334426244 0.6189122545016335
9 49.781207306384765 1.8695798867490268 1.68070864556698 0.7646694873742734 0.2548898291247581 0.2548898291247581 0.0 -0.0 0.7176002965020949 0.6964551776389529
10 26.754899457905235 51.86427813703688 10.876810422978961 0.7723545434865524 0.2574515144955165 0.2574515144955165 0.0 0.0 0.38534345666417513 0.9227732226317065
11 32.4049813151067 55.53925250648276 54.47688552111997 0.7801168356968085 0.260038945232269 0.260038945232269 0.0 0.0 0.49983922045674145 0.866118209999765
12 19.965366005746784 52.13664190905894 15.307749659914014 0.7879571402407333 0.2626523800802442 0.2626523800802442 0.0 0.0 0.2746680171135514 0.9615391205639581
13 30.59867397428287 52.68210042710604 54.99712259370424 0.7958762411553141 0.2652920803851046 0.2652920803851046 0.0 -0.0 0.7886508549344257 0.614841303924191
14 13.956058819397073 57.60261451371233 31.367465448179836 0.8038749303572436 0.26795831011908183 0.26795831011908183 0.0 -0.0 0.7750680292508737 0.6318777967559605
15 16.98748063767956 1.2906771269804536 31.171935377995986 0.8119540077221077 0.27065133590737017 0.27065133590737017 0.0 0.0 0.6340811782098568 0.7732664866913604
16 16.922857588475463 45.01370232808777 45.786418278591356 0.8201142811643753 0.2733714270547917 0.2733714270547917 0.0 -0.0 0.7629176367612683 0.6464956918020424
17 36.08920246098136 44.89293703805951 36.95622388249098 0.8283565667181912 0.27611885557272997 0.27611885557272997 0.0 0.0 0.6579222258448839 0.7530858813836
18 5.339880161571678 47.86373553015402 51.939713397084276 0.836681688618978 0.27889389620632565 0.27889389620632565 0.0 0.0 0.506211649243881 0.8624092799650234
19 8.336632947735211 8.716010973905195 41.94697821372587 0.8450904793858597 0.281696826461953 0.281696826461953 0.0 0.0 0.6434542777811493 0.7654845474633303
20 18.448189756874484 58.44438638803812 6.691938172175544 0.8535837799049292 0.28452792663497556 0.28452792663497556 0.0 -0.0 0.7861857262579329 0.6179902942832407
21 26.395373840614425 36.04734362844594 45.589818034390696 0.8621624395133063 0.2873874798377695 0.2873874798377695 0.0 0.0 0.6069811502172251 0.7947162281474907
22 34.271847557186405 3.9113406312447623 12.050871366196056 0.8708273160841106 0.29027577202803684 0.29027577202803684 0.0 -0.0 0.8910647246123514 0.45387625687131333
23 41.792935020583776 51.39556488823188 37.91571618214177 0.879579276112211 0.2931930920374045 0.2931930920374045 0.0 -0.0 0.7582829367961579 0.651925599868416
24 23.09828110246098 51.636751045013334 45.91265757809007 0.8884191948009134 0.2961397316003038 0.2961397316003038 0.0 0.0 0.5255054740936084 0.8507902189715464
25 1.3380054252767266 14.822607780340089 29.73865781684534 0.8973479561494421 0.29911598538314726 0.29911598538314726 0.0 0.0 0.6637035342538496 0.7479957343587923
26 54.599363085670014 31.132906080312587 13.225093604384874 0.9063664530413827 0.30212215101379447 0.30212215101379447 0.0 0.0 0.5361151400853296 0.8441448670526212
27 57.55802281332183 38.935790779138465 2.2447773621216327 0.9154755873339336 0.3051585291113103 0.3051585291113103 0.0 -0.0 0.7297620279401082 0.6837012378054764
28 49.652136316235385 18.198697005736566 33.429810522760995 0.9246762699481132 0.3082254233160386 0.3082254233160386 0.0 -0.0 0.9828164757017253 0.18458541407500267
29 42.31775819367534 41.54627284191739 22.191529634909752 0.9339694209598576 0.3113231403199525 0.3113231403199525 0.0 -0.0 0.8740853421614372 0.4857723897243679
30 14.626943941125553 17.7730810261138 36.450253665718115 0.943355969692008 0.3144519898973357 0.3144519898973357 0.0 -0.0 0.8433777540022546 0.5373210995802349
31 28.048147940393857 42.79398601458884 39.389050968080625 0.9528368548072599 0.3176122849357533 0.3176122849357533 0.0 0.0 0.6952778540174372 0.7187410560924617
32 25.66857594823659 36.682928322966376 45.716835357665275 0.9624130244020285 0.32080434146734205 0.32080434146734205 0.0 0.0 0.6353234605105568 0.7722461398575527
33 24.408427112157828 18.963611713313597 19.02635962576374 0.9720854361012449 0.32402847870041607 0.32402847870041607 0.0 0.0 0.6411270229476993 0.7674347792784871
34 8.134516881450429 20.29907497989115 10.487347152996408 0.9818550571541483 0.3272850190513826 0.3272850190513826 0.0 -0.0 0.7453722743584635 0.6666484625480594
35 28.247862123181196 25.280985500567237 49.790094239153426 0.9917228645309855 0.330574288176994 0.330574288176994 0.0 -0.0 0.7109313362059317 0.7032614273514853
36 17.080709126130877 52.06790000183997 34.266516515095226 1.001689845020712 0.3338966150069031 0.3338966150069031 0.0 -0.0 0.739632735620696 0.6730107104632479
37 56.1779401275328 44.89216743910194 47.13796773719017 1.0117569953296826 0.33725233177656083 0.33725233177656083 0.0 0.0 0.5163603530767541 0.8563714064414165
38 59.84418128583402 23.728846755331176 32.23920477927113 1.0219253221813192 0.34064177406044055 0.34064177406044055 0.0 0.0 0.5145463711011363 0.8574625542766586
39 4.847863172553638 31.954806813398008 7.997598547961946 1.0321958424167839 0.3440652808055948 0.3440652808055948 0.0 0.0 0.5880831456971182 0.8088004783300898
40 51.27532607325254 4.134531690404255 24.37108970848501 1.0425695830966555 0.3475231943655525 0.3475231943655525 0.0 -0.0 0.8608342640850161 0.5088854191045453
41 12.212887479184923 37.922435237867724 45.23366844473636 1.0530475816036502 0.35101586053454975 0.35101586053454975 0.0 0.0 0.5813114541301716 0.8136811373609846
42 41.261822252794595 19.682219734504052 26.438806788988767 1.063630885746347 0.35454362858211563 0.35454362858211563 0.0 0.0 0.6858728758951139 0.7277213739552836
43 5.9661993002953935 52.46556283907208 41.43591575663757 1.0743205538639806 0.35810685128799263 0.35810685128799263 0.0 -0.0 0.8971229945165649 0.4417808650333688
44 24.121801416184017 41.07319948454855 28.46020791329635 1.0851176549322663 0.361705884977422 0.361705884977422 0.0 -0.0 0.7662793896249596 0.6425075073771507
45 45.010188835144454 59.54548900147077 5.516555979627011 1.0960232686703175 0.3653410895567717 0.3653410895567717 0.0 -0.0 0.8021859139948743 0.5970743332184094
46 23.84346171421283 50.32530210690687 18.83475753264988 1.1070384856485906 0.36901282854953044 0.36901282854953044 0.0 0.0 0.6689296931602822 0.7433256793683982
47 35.51510089176512 60.34328438461446 33.193338452869966 1.1181644073979597 0.3727214691326534 0.3727214691326534 0.0 -0.0 0.8121614142020023 0.5834328044268712
48 29.8312700881271 31.820959187391814 31.584887868591206 1.1294021465198794 0.37646738217329406 0.37646738217329406 0.0 0.0 0.43861391052531945 0.8986756019241242
49 17.592649218481352 28.164624844843345 58.34499911543739 1.1407528267976217 0.38025094226587497 0.38025094226587497 0.0 -0.0 0.7611420715427216 0.6485851886434459
50 27.065429968128186 56.06903577321318 52.033342821521224 1.1522175833086783 0.38407252776955814 0.38407252776955814 0.0 0.0 0.5689873473401131 0.8223462765568174
51 42.32112190411898 37.78855656347191 42.785143570301535 1.1637975625382453 0.387932520846081 0.387932520846081 0.0 -0.0 0.9816329176571261 0.1907794930592849
52 7.7930960945887096 57.350433355272465 51.82952643835442 1.1754939224938994 0.39183130749796785 0.39183130749796785 0.0 -0.0 0.8312938914163103 0.5558331279205367
53 34.10099377673509 16.2713046727057 56.24817467555055 1.1873078328213913 0.395769277607129 0.395769277607129 0.0 0.0 0.4937832216878833 0.8695850332081013
54 15.930580209625756 23.856781350679846 20.219984731261917 1.1992404749215848 0.39974682497386216 0.39974682497386216 0.0 -0.0 0.7425013715714329 0.6698445440656666
55 17.978845224041205 45.87208374373433 7.6020119065613745 1.1992404749215848 0.39974682497386216 0.39974682497386216 0.0 -0.0 0.899222239431846 0.4374921303419936
56 34.892744601433016 31.478101734116677 55.46593336987622 1.2112930420686414 0.40376434735621525 0.40376434735621525 0.0 0.0 0.591041689671776 0.8066410112744902
57 46.92934847137749 12.782825046729654 42.18034279610134 1.2112930420686414 0.40376434735621525 0.40376434735621525 0.0 0.0 0.6906372933410847 0.7232013060320761
58 32.70917903129162 28.578081357629394 30.4958755528749 1.2234667395293242 0.40782224650977456 0.40782224650977456 0.0 -0.0 0.9778925487455288 0.20910801779935065
59 32.03724849700217 37.86936883254417 59.64273698645884 1.2234667395293242 0.40782224650977456 0.40782224650977456 0.0 -0.0 0.8334397726994561 0.5526103014626843
60 24.87510599513675 28.367580926930017 30.238359207151746 1.2357627846835142 0.41192092822783805 0.41192092822783805 0.0 -0.0 0.8251393648538317 0.5649292243888745
61 35.22072495944647 20.89483054483724 60.19411964736561 1.2357627846835142 0.41192092822783805 0.41192092822783805 0.0 -0.0 0.8342848482439009 0.5513336485202505
62 49.966189244746516 4.561986176189021 27.76792963956453 1.248182407145979 0.4160608023819943 0.4160608023819943 0.0 0.0 0.6993489688984815 0.7147803996337831
63 31.555817850640242 37.80075483459762 19.64041708090353 1.248182407145979 0.4160608023819943 0.4160608023819943 0.0 0.0 0.6638694557235675 0.747848477806363
64 16.64178312934427 45.53356893696228 16.018055604611455 1.2607268488893155 0.4202422829631065 0.4202422829631065 0.0 0.0 0.5469534661185369 0.8371630103515794
65 0.9704995560117683 56.75101893216082 32.19934137943884 1.2607268488893155 0.4202422829631065 0.4202422829631065 0.0 0.0 0.534266604389083 0.8453160328744268
66 41.22649434524781 11.154186139593302 23.2557305094708 1.273397364368154 0.4244657881227175 0.4244657881227175 0.0 0.0 0.49259387534365895 0.8702593142126752
67 58.24133764428476 2.0178144971001752 0.6968180707597231 1.273397364368154 0.4244657881227175 0.4244657881227175 0.0 -0.0 0.7991221049958454 0.6011687461162707
68 15.104889505928048 47.41612004878277 37.95275359800738 1.286195220644592 0.42873174021486216 0.42873174021486216 0.0 -0.0 0.8113628171424923 0.5845428803420658
69 45.152956852350535 55.821756792321025 21.056230680829092 1.286195220644592 0.42873174021486216 0.42873174021486216 0.0 0.0 0.69974083585519 0.7143967823532522
70 28.911678480594226 17.028697698658213 17.821995436716097 1.299121697514924 0.43304056583830924 0.43304056583830924 0.0 -0.0 0.9226100212719841 0.3857340387475665
71 60.76266171977217 46.27776958894088 59.23614183857481 1.299121697514924 0.43304056583830924 0.43304056583830924 0.0 -0.0 0.8908476943010929 0.4543020862360491
72 49.51866645436922 15.198734080818838 10.69642989783452 1.3121780876376172 0.437392695879207 0.437392695879207 0.0 -0.0 0.9180976465577227 0.39635427509384946
73 51.250868013587485 41.850636029447024 34.77505877605454 1.3121780876376172 0.437392695879207 0.437392695879207 0.0 0.0 0.6852526383261238 0.7283054453092375
74 6.810602431907827 15.703118893219237 16.75588103414789 1.3253656966625587 0.4417885655541865 0.4417885655541865 0.0 0.0 0.6622208999947843 0.7493086677799063
75 40.93835851406644 23.2990459836725 59.61245641689857 1.3253656966625587 0.4417885655541865 0.4417885655541865 0.0 0.0 0.6669694181073614 0.7450850926636016
76 8.702032995652672 52.70018954253137 10.318339113217739 1.3386858433616455 0.44622861445388085 0.44622861445388085 0.0 0.0 0.4849872773235938 0.8745212066235144
77 47.61756517913728 52.93987023978304 27.663748568446643 1.3386858433616455 0.44622861445388085 0.44622861445388085 0.0 -0.0 0.724549744492829 0.6892225096116464
78 52.158191918607024 23.611710220758773 57.507768603705145 1.3521398597606373 0.45071328658687915 0.45071328658687915 0.0 0.0 0.646327957303847 0.7630597431442944
79 17.14572998280859 1.5758142128713764 4.676277622845521 1.3521398597606373 0.45071328658687915 0.45071328658687915 0.0 0.0 0.4210348644808628 0.9070444547493698
80 16.726281104835053 51.958738784149446 33.22152477049155 1.3657290912723947 0.455243030424131 0.455243030424131 0.0 0.0 0.5786941501693628 0.8155446527074768
81 10.353455905744774 30.79634154785176 36.244570010308934 1.3657290912723947 0.455243030424131 0.455243030424131 0.0 0.0 0.683142879342022 0.730284743373632
82 50.11310872929817 54.72317892334427 44.76225167493896 1.3794548968313938 0.4598182989437981 0.4598182989437981 0.0 0.0 0.3480344086077516 0.937481760049257
83 22.104996958663396 16.209616720515537 56.99923083987333 1.3794548968313938 0.4598182989437981 0.4598182989437981 0.0 -0.0 0.8280938516825816 0.560589486884571
84 0.2721096281987615 10.629406974009067 59.115509450749194 1.3933186490296225 0.46443954967654155 0.46443954967654155 0.0 -0.0 0.8521868438699086 0.5232375972109076
85 58.63961918641439 41.642831357909394 3.8978268895526993 1.3933186490296225 0.46443954967654155 0.46443954967654155 0.0 0.0 0.2683204071818837 0.9633297250109892
86 60.03551133749116 25.672489362188706 3.1123752949794827 1.407321734253857 0.4691072447512864 0.4691072447512864 0.0 0.0 0.5717525694490604 0.8204261083902665
87 54.82250303940136 45.9363689468366 46.15970948549189 1.407321734253857 0.4691072447512864 0.4691072447512864 0.0 -0.0 0.7407334016199733 0.6717990977401677
88 16.710283595851934 27.35956288774717 0.26110237320363056 1.4214655528242897 0.47382185094143014 0.47382185094143014 0.0 0.0 0.6524446383875427 0.7578363898885753
89 19.436982885445513 7.806826518370965 58.682496969878 1.4214655528242897 0.47382185094143014 0.47382185094143014 0.0 0.0 0.3815125934194192 0.9243636411404275
90 37.89578158870585 48.13659469315852 36.76402371126599 1.43575151913456 0.4785838397115213 0.4785838397115213 0.0 -0.0 0.7664413141092511 0.642314340511314
91 1.4809599865426841 26.46186837133451 33.17339185565973 1.43575151913456 0.4785838397115213 0.4785838397115213 0.0 -0.0 0.7164030651197486 0.6976866404676452
92 32.290104391026546 54.97663106547455 37.01406481419121 1.4501810617932138 0.4833936872644048 0.4833936872644048 0.0 0.0 0.3159382626609752 0.9487797500931208
93 18.454104308585254 21.577486932148336 17.530301194091972 1.4501810617932138 0.4833936872644048 0.4833936872644048 0.0 -0.0 0.807675111463051 0.5896277760783901
94 26.81038290331634 18.439474163253887 60.12534900450306 1.464755623766532 0.4882518745888422 0.4882518745888422 0.0 0.0 0.5856043209472178 0.8105970511221638
95 32.552639658050396 44.74424731485407 58.91300284223871 1.464755623766532 0.4882518745888422 0.4882518745888422 0.0 -0.0 0.8283891439806925 0.5601530381377355
96 27.200495437307705 36.16278177633642 36.304255415024855 1.479476662522859 0.4931588875076179 0.4931588875076179 0.0 0.0 0.6380161188650698 0.7700230074928626
97 28.282165093111068 46.733352401784366 13.151949637756816 1.479476662522859 0.4931588875076179 0.4931588875076179 0.0 0.0 0.5652655734899162 0.8249089837231233
98 17.707038602213334 10.778491480959865 22.87063273204452 1.494345650178341 0.49811521672611353 0.49811521672611353 0.0 -0.0 0.9884337224668884 0.15165347437579585
99 52.47217828871664 28.15289490744379 59.518256635467765 1.494345650178341 0.49811521672611353 0.49811521672611353 0.0 0.0 0.644584962479319 0.7645326848117973
100 39.97492234266953 37.80770352820034 42.67863134132431 1.5093640736441278 0.5031213578813765 0.5031213578813765 0.0 -0.0 0.7665764345255346 0.6421530736748979
101 28.472448221983264 48.83940334958931 4.537731238872157 1.5093640736441278 0.5031213578813765 0.5031213578813765 0.0 -0.0 0.7486465484609144 0.6629693397718779
102 59.51680746253414 28.744061961939483 30.539714375153114 1.5245334347750976 0.5081778115916981 0.5081778115916981 0.0 -0.0 0.764238184631255 0.644934102952793
103 33.25204199180633 18.248453322467512 32.72283174674824 1.5245334347750976 0.5081778115916981 0.5081778115916981 0.0 -0.0 0.7262700822056904 0.6874094614514261
104 14.097860008705213 36.34158963080056 19.411541673401768 1.5398552505199838 0.5132850835066608 0.5132850835066608 0.0 0.0 0.6864264585310771 0.7271992278794606
105 60.541533972643585 48.8788364113447 14.375678248635033 1.5398552505199838 0.5132850835066608 0.5132850835066608 0.0 -0.0 0.8498704758576332 0.5269916263713497
106 57.350788270583436 49.15516027367784 42.464409096926516 1.5553310530731446 0.5184436843577154 0.5184436843577154 0.0 -0.0 0.793590538753224 0.6084521811953406
107 40.116182955199044 41.76264598907538 26.62679433170529 1.5553310530731446 0.5184436843577154 0.5184436843577154 0.0 -0.0 0.8299364941277125 0.5578578812878792
108 57.93215675637476 27.838113358194637 43.08352915495783 1.570962390027721 0.5236541300092422 0.5236541300092422 0.0 -0.0 0.7596155095013813 0.650372414640225
109 41.700346667638364 28.425451247402677 44.65805182807997 1.570962390027721 0.5236541300092422 0.5236541300092422 0.0 -0.0 0.746179639226726 0.6657446552571586
110 27.997610370158625 60.18247078947369 49.392596757838895 1.586750824530443 0.528916941510149 0.528916941510149 0.0 -0.0 0.7434755474029917 0.6687631198068729
111 35.91058441692054 45.66091058920335 0.586963381525467 1.586750824530443 0.528916941510149 0.528916941510149 0.0 -0.0 0.7635489887521677 0.6457499065238353
112 45.27831628638328 42.63490725067499 10.078652776988333 1.6026979354379192 0.5342326451459715 0.5342326451459715 0.0 -0.0 0.925703395166632 0.3782502137170186
113 56.28424443123423 37.180685788152225 26.433408657759845 1.6026979354379192 0.5342326451459715 0.5342326451459715 0.0 -0.0 0.7476030998596368 0.6641457709571461
114 12.959388417123163 45.17503052105833 31.089286678926754 1.618805317474516 0.5396017724915058 0.5396017724915058 0.0 -0.0 0.7095009508808979 0.7047044775642494
115 50.68772939138643 51.66214880122302 30.82799419336835 1.618805317474516 0.5396017724915058 0.5396017724915058 0.0 0.0 0.692332939305712 0.7215782016887105
116 14.749297569744293 22.330669548532395 58.160654990374866 1.6350745813918763 0.5450248604639604 0.5450248604639604 0.0 0.0 0.4838188577050026 0.8751681626573412
117 31.717694488349927 58.57426788811083 12.803433184200541 1.6350745813918763 0.5450248604639604 0.5450248604639604 0.0 0.0 0.4072390243389004 0.9133216175343166
118 33.18469790705488 57.33330795868236 9.149406408853096 1.6515073541299394 0.5505024513766481 0.5505024513766481 0.0 -0.0 0.9854258972554679 0.17010526452245991
119 30.474937866078964 58.56464532306176 59.59749150866041 1.6515073541299394 0.5505024513766481 0.5505024513766481 0.0 0.0 0.693566054094668 0.720393037589587
120 9.693844873312386 33.903162399689016 58.53963246827494 1.6681052789796766 0.5560350929932272 0.5560350929932272 0.0 -0.0 0.8546373086497397 0.5192254526349123
121 13.034192805878932 36.51770691626198 4.813692961674433 1.6681052789796766 0.5560350929932272 0.5560350929932272 0.0 -0.0 0.738138054050796 0.6746496966293722
122 35.657122091795145 13.183282449495977 55.14836393774201 1.6848700157474128 0.5616233385824692 0.5616233385824692 0.0 0.0 0.30497028615780525 0.9523618663936657
123 1.503213996625611 28.537253379072695 8.661211164867776 1.6848700157474128 0.5616233385824692 0.5616233385824692 0.0 -0.0 0.8240326158671573 0.5665423620411186
124 47.874134981542575 22.490872798772575 54.032811495423836 1.7018032409207742 0.5672677469735915 0.5672677469735915 0.0 -0.0 0.7351480847541838 0.6779065521753388
125 4.04616998270777 20.546198790553596 6.11256552304122 1.7018032409207742 0.5672677469735915 0.5672677469735915 0.0 0.0 0.6354145425399089 0.7721711980699606
126 16.891429605887986 1.3384697365276401 24.090124866248356 1.718906647836405 0.572968882612135 0.572968882612135 0.0 -0.0 0.9631928649301144 0.2688112812880415
127 58.24076877112346 39.144501582315115 40.18801102248023 1.718906647836405 0.572968882612135 0.572968882612135 0.0 0.0 0.6645731125154195 0.7472232451694524
128 23.98431673068852 10.634147345165559 36.13774441957353 1.7361819468492519 0.5787273156164164 0.5787273156164164 0.0 -0.0 0.837305869343264 0.5467347447925007
129 45.122423532464964 3.871132421316644 46.77023719458005 1.7361819468492519 0.5787273156164164 0.5787273156164164 0.0 0.0 0.6718759690179156 0.7406636768846148
130 51.93089157723232 40.1172918212661 21.35759828660248 1.7536308655035975 0.5845436218345327 0.5845436218345327 0.0 -0.0 0.8172568989423515 0.5762735124323614
131 43.62090000224123 39.22283341474386 33.238325588120304 1.7536308655035975 0.5845436218345327 0.5845436218345327 0.0 0.0 0.5650588956672867 0.8250505708302167
132 12.904447737436756 29.834090089471232 43.4706190553757 1.7712551487058639 0.5904183829019547 0.5904183829019547 0.0 0.0 0.5632303093681869 0.8262999568008076
133 39.91639667002215 10.443111570813484 15.038553872273763 1.7712551487058639 0.5904183829019547 0.5904183829019547 0.0 0.0 0.7047758212396541 0.7094300823872436
134 25.752645110581295 15.807386871338723 39.81210508315489 1.7890565588990497 0.5963521862996832 0.5963521862996832 0.0 -0.0 0.7457546235329385 0.6662207152882933
135 46.19233680747539 17.05378768824159 37.03208419261803 1.7890565588990497 0.5963521862996832 0.5963521862996832 0.0 0.0 0.5807371118896761 0.8140911539097067
136 53.95215366038275 37.39597652865475 39.58367316998522 1.807036876239016 0.6023456254130036 0.6023456254130036 0.0 -0.0 0.7765636880913803 0.6300387593933514
137 2.5700147843908714 50.05034248405828 12.177858757598505 1.807036876239016 0.6023456254130036 0.6023456254130036 0.0 -0.0 0.9207785641385271 0.39008567754147583
138 32.56776557179752 52.574573438323796 49.13303239489581 1.825197898772468 0.6083992995908226 0.6083992995908226 0.0 0.0 0.5933031767685688 0.8049790931672228
139 57.672266088406055 21.13040851436008 50.60276677102794 1.825197898772468 0.6083992995908226 0.6083992995908226 0.0 0.0 0.36293328461656904 0.9318151270061183
140 36.83043972620104 60.26314228249618 52.726445776227884 1.843541442616803 0.6145138142056009 0.6145138142056009 0.0 0.0 0.5657838974393875 0.8245535649054563
141 49.756102134702445 3.390696820399735 47.57341619587188 1.843541442616803 0.6145138142056009 0.6145138142056009 0.0 0.0 0.5898626798291705 0.8075035720941112
142 3.078089750165434 30.82548888754481 48.55560283813311 1.8620693421416867 0.6206897807138969 0.6206897807138969 0.0 0.0 0.494526605223718 0.8691624915548904
143 43.987201294150054 30.353899474901766 9.54234653266272 1.8620693421416867 0.6206897807138969 0.6206897807138969 0.0 0.0 0.6621201748514545 0.7493976741721844
144 3.7975996208802334 34.966106213929585 32.85827084945124 1.8807834501525222 0.6269278167175052 0.6269278167175052 0.0 -0.0 0.8358120424685423 0.5490156916378287
145 2.9559947078365187 57.0464386595546 30.098242195520093 1.8807834501525222 0.6269278167175052 0.6269278167175052 0.0 -0.0 0.7380766977143534 0.6747168208152773
146 40.94551814247149 3.07559281774256 48.20218044374564 1.8996856380756941 0.6332285460252318 0.6332285460252318 0.0 0.0 0.5600689403365469 0.8284460043179022
147 38.9237916020512 31.52598952699803 42.06117745755648 1.8996856380756941 0.6332285460252318 0.6332285460252318 0.0 -0.0 0.8053653384335279 0.5927787712543771
148 1.9389496809809077 30.989124191720695 55.86588315606787 1.9187777961457486 0.6395925987152481 0.6395925987152481 0.0 -0.0 0.9475491048281723 0.31961022189430877
149 26.75608173066656 51.15728503572584 29.355204026902506 1.9187777961457486 0.6395925987152481 0.6395925987152481 0.0 -0.0 0.8855269061838191 0.46458809543994295
150 5.729625874102269 39.584710699063024 12.950248671655116 1.9380618335944 0.646020611198135 0.646020611198135 0.0 -0.0 0.8997163709941051 0.43647502994466686
151 28.226730646817835 55.81045354572221 60.69346744114881 1.9380618335944 0.646020611198135 0.646020611198135 0.0 0.0 0.6949034215940625 0.7191030765174521
152 11.69026898931414 9.289572051440691 12.331336968112453 1.9575396788414703 0.6525132262804925 0.6525132262804925 0.0 0.0 0.6496096252583186 0.7602679361723385
153 2.1662315474856992 42.34090475879766 57.51733695110775 1.9575396788414703 0.6525132262804925 0.6525132262804925 0.0 0.0 0.6980264017745981 0.7160720232110785
154 43.740402214085 49.20477797921503 19.607968553870688 1.9772132796877178 0.6590710932292393 0.6590710932292393 0.0 -0.0 0.9126309719920443 0.4087844284716046
155 18.551023758444657 25.98995850283921 15.427469307901466 1.9772132796877178 0.6590710932292393 0.6590710932292393 0.0 0.0 0.34897032679986184 0.9371337743423815
156 58.87358523723327 4.625378263055595 3.6382012020535726 1.9970846035096201 0.6656948678365405 0.6656948678365405 0.0 0.0 0.6995675014656925 0.7145665195718649
157 29.108012538534 7.82479830591579 42.089826516853805 1.9970846035096201 0.6656948678365405 0.6656948678365405 0.0 0.0 0.63565327495599 0.7719746848425306
158 50.77344667823794 6.11218695183212 24.828196020442032 2.017155637456104 0.6723852124853703 0.6723852124853703 0.0 -0.0 0.7426985308561326 0.6696259345814963
159 6.38364323795591 17.044611510100463 24.769355008502313 2.017155637456104 0.6723852124853703 0.6723852124853703 0.0 0.0 0.4891044501540252 0.8722252213961303
160 42.7351531703383 37.92938711915288 12.59238376680488 2.0374283886473115 0.6791427962157705 0.6791427962157705 0.0 0.0 0.6466947184788655 0.7627489371290798
161 27.57221918156098 19.32671524932833 42.90810678513105 2.0374283886473115 0.6791427962157705 0.6791427962157705 0.0 0.0 0.6377575578887067 0.7702371695496348
162 53.524318244225675 50.93381893701886 49.36913420988228 2.0579048843752457 0.6859682947917491 0.6859682947917491 0.0 0.0 0.6701572236966805 0.7422191694689361
163 44.150806296502424 19.6296105792941 40.5626637517954 2.0579048843752457 0.6859682947917491 0.6859682947917491 0.0 -0.0 0.7797338016261434 0.6261111711203069
164 23.3202960580796 29.773994515607818 27.48677743579441 2.078587172306538 0.6928623907688457 0.6928623907688457 0.0 0.0 0.6966086930688543 0.7174512727293072
165 2.1561397218913894 47.564640308698124 5.284031785391019 2.078587172306538 0.6928623907688457 0.6928623907688457 0.0 -0.0 0.8994069955971553 0.43711217813153935
47_T 35.51510089176512 -0.556715615385535 33.193338452869966 1.1181644073979597 0.3727214691326534 0.3727214691326534 0.0 -0.0 0.8121614142020023 0.5834328044268712
71_L -0.13733828022783 46.27776958894088 59.23614183857481 1.299121697514924 0.43304056583830924 0.43304056583830924 0.0 -0.0 0.8908476943010929 0.4543020862360491
84_R 61.17210962819876 10.629406974009067 59.115509450749194 1.3933186490296225 0.46443954967654155 0.46443954967654155 0.0 -0.0 0.8521868438699086 0.5232375972109076
88_Ba 16.710283595851934 27.35956288774717 61.161102373203626 1.4214655528242897 0.47382185094143014 0.47382185094143014 0.0 0.0 0.6524446383875427 0.7578363898885753
105_L -0.358466027356414 48.8788364113447 14.375678248635033 1.5398552505199838 0.5132850835066608 0.5132850835066608 0.0 -0.0 0.8498704758576332 0.5269916263713497
110_T 27.997610370158625 -0.7175292105263082 49.392596757838895 1.586750824530443 0.528916941510149 0.528916941510149 0.0 -0.0 0.7434755474029917 0.6687631198068729
140_T 36.83043972620104 -0.6368577175038155 52.726445776227884 1.843541442616803 0.6145138142056009 0.6145138142056009 0.0 0.0 0.5657838974393875 0.8245535649054563
151_F 28.226730646817835 55.81045354572221 -0.20653255885118682 1.9380618335944 0.646020611198135 0.646020611198135 0.0 0.0 0.6949034215940625 0.7191030765174521
