ITEM: TIMESTEP
623
ITEM: NUMBER OF ATOMS
255
ITEM: BOX BOUNDS ff ff ff
0 60.9
60.9 0
60.9 0
ITEM: ATOMS id x y z AsphericalShapeX AsphericalShapeY AsphericalShapeZ OrientationX OrientationY OrientationZ OrientationW
1 44.9085261338508 50.07449309615124 22.079663144152885 4.404684357080533 1.4682281190268494 1.4682281190268494 0.0 -0.0 0.7863642711635499 0.6177630881150306
2 5.293227274779225 20.110262320637908 21.715756101117172 4.4489521708221975 1.4829840569407022 1.4829840569407022 0.0 -0.0 0.8896314041555925 0.4566792799549252
3 19.494573975676847 12.592567167001263 55.686324701547186 4.49366488348834 1.4978882944961478 1.4978882944961478 0.0 0.0 0.631512325711268 0.7753658378305981
4 16.909134492312432 39.83893652578164 44.64019606469383 4.538826966387721 1.5129423221292566 1.5129423221292566 0.0 0.0 0.5765741652112841 0.8170448164029381
5 40.5343860794217 34.07998171351832 21.280847530690163 4.584442935766073 1.5281476452553622 1.5281476452553622 0.0 -0.0 0.8873914294477543 0.4610167577677315
6 24.348857998151765 14.552348782973562 24.993015588921516 4.630517353258353 1.5435057844194568 1.5435057844194568 0.0 0.0 0.643710445538684 0.7652691437033046
7 19.37944371709311 57.50277054939573 37.62621509631602 4.6770548263447145 1.5590182754482278 1.5590182754482278 0.0 -0.0 0.7603958793842515 0.6494598575858641
8 41.465636284232986 36.92245153099373 14.531148742111565 4.724060008811253 1.5746866696037845 1.5746866696037845 0.0 -0.0 0.7854601334426244 0.6189122545016335
9 52.129357584307556 5.434940213438836 52.71894409817009 4.771537601215502 1.5905125337385022 1.5905125337385022 0.0 -0.0 0.7176002965020949 0.6964551776389529
10 47.41193679190439 14.898567818755094 12.921539978224295 4.819492351356117 1.6064974504520433 1.6064974504520433 0.0 0.0 0.38534345666417513 0.9227732226317065
11 19.954440202204808 34.90790968028416 60.431957249213966 4.867929054748088 1.6226430182493745 1.6226430182493745 0.0 0.0 0.49983922045674145 0.866118209999765
12 13.258158646330639 17.264056388378656 24.496580119058365 4.916852555102108 1.6389508517007374 1.6389508517007374 0.0 0.0 0.2746680171135514 0.9615391205639581
13 8.738583186355887 47.51456244171693 15.581742363334081 4.966267744809184 1.655422581603052 1.655422581603052 0.0 -0.0 0.7886508549344257 0.614841303924191
14 7.811247754203162 28.731313048273684 24.609752213148713 5.016179565429181 1.6720598551430468 1.6720598551430468 0.0 -0.0 0.7750680292508737 0.6318777967559605
15 27.016363145030216 45.4972571359544 19.95278015921664 5.066593008185906 1.6888643360620075 1.6888643360620075 0.0 0.0 0.6340811782098568 0.7732664866913604
16 18.576102141416484 31.311119616927527 50.965867920730375 5.117513114465783 1.7058377048218996 1.7058377048218996 0.0 -0.0 0.7629176367612683 0.6464956918020424
17 19.315241973279218 23.535151145314067 34.09234927917336 5.1689449763215425 1.7229816587738227 1.7229816587738227 0.0 0.0 0.6579222258448839 0.7530858813836
18 37.16921350793924 28.09789745657143 16.041703006822928 5.220893736982391 1.7402979123274602 1.7402979123274602 0.0 0.0 0.506211649243881 0.8624092799650234
19 14.560501759569679 12.061668918440194 36.852852654928505 5.273364591367771 1.7577881971225835 1.7577881971225835 0.0 0.0 0.6434542777811493 0.7654845474633303
20 30.57659167792425 52.0441654195466 35.16992291176551 5.326362786606732 1.7754542622022715 1.7754542622022715 0.0 -0.0 0.7861857262579329 0.6179902942832407
21 46.86496580134376 15.5385743647167 44.966242397895556 5.379893622563 1.793297874187657 1.793297874187657 0.0 0.0 0.6069811502172251 0.7947162281474907
22 18.80065869494534 11.54832765510012 30.091118162841543 5.433962452364795 1.8113208174549191 1.8113208174549191 0.0 -0.0 0.8910647246123514 0.45387625687131333
23 41.19051052857729 60.586249355944844 46.36525774977926 5.488574682940161 1.8295248943134257 1.8295248943134257 0.0 -0.0 0.7582829367961579 0.651925599868416
24 26.345804978886832 5.522696593750072 47.20015992842892 5.543735775557634 1.847911925185887 1.847911925185887 0.0 0.0 0.5255054740936084 0.8507902189715464
25 14.824540197613164 0.7789754960707904 52.14981750027424 5.599451246372603 1.8664837487908381 1.8664837487908381 0.0 0.0 0.6637035342538496 0.7479957343587923
26 2.1003447340503953 43.99337769493027 29.097346300981776 5.655726666978232 1.8852422223260803 1.8852422223260803 0.0 0.0 0.5361151400853296 0.8441448670526212
27 5.556276057013539 30.045555789285245 31.91833948459554 5.712567664963752 1.9041892216545682 1.9041892216545682 0.0 -0.0 0.7297620279401082 0.6837012378054764
28 17.157308764379597 33.78001264855039 29.769915251761827 5.769979924476264 1.9233266414920556 1.9233266414920556 0.0 -0.0 0.9828164757017253 0.18458541407500267
29 45.04711854795517 31.386716538659712 30.30612229389859 5.827969186789562 1.9426563955965364 1.9426563955965364 0.0 -0.0 0.8740853421614372 0.4857723897243679
30 20.05274719348868 60.27907174004553 26.436774251793587 5.886541250878173 1.9621804169594064 1.9621804169594064 0.0 -0.0 0.8433777540022546 0.5373210995802349
31 60.517060831127154 40.857809206117714 31.69891646515981 5.9457019739972665 1.9819006579991345 1.9819006579991345 0.0 0.0 0.6952778540174372 0.7187410560924617
32 55.32826524583095 36.605539965460366 32.822584458813424 6.005457272268672 2.0018190907562383 2.0018190907562383 0.0 0.0 0.6353234605105568 0.7722461398575527
33 30.204766762654046 25.71762943287004 25.21966984612222 6.065813121271824 2.021937707090573 2.021937707090573 0.0 0.0 0.6411270229476993 0.7674347792784871
34 20.604138297715355 19.840046184864295 21.20081241266369 6.12677555664184 2.04225851888066 2.04225851888066 0.0 -0.0 0.7453722743584635 0.6666484625480594
35 21.01741746748553 47.7844920927415 41.2767480661852 6.18835067467329 2.0627835582244662 2.0627835582244662 0.0 -0.0 0.7109313362059317 0.7032614273514853
36 40.48159860520933 7.257122309167344 59.320004132464504 6.250544632929162 2.083514877643101 2.083514877643101 0.0 -0.0 0.739632735620696 0.6730107104632479
37 26.275204607705998 50.85393726459471 23.722051716923218 6.313363650857283 2.1044545502857757 2.1044545502857757 0.0 0.0 0.5163603530767541 0.8563714064414165
38 17.150556790255035 16.698264307738395 17.364751458435585 6.376814010411483 2.125604670137123 2.125604670137123 0.0 0.0 0.5145463711011363 0.8574625542766586
39 8.725280881280806 39.33131124357212 23.580641685664254 6.440902056680728 2.1469673522269095 2.1469673522269095 0.0 0.0 0.5880831456971182 0.8088004783300898
40 59.16592555399743 21.6722966235567 14.846120255052512 6.505634198523214 2.1685447328410508 2.1685447328410508 0.0 -0.0 0.8608342640850161 0.5088854191045453
41 9.787993582093407 20.600575482327343 27.8262243939634 6.571016909206777 2.190338969735583 2.190338969735583 0.0 0.0 0.5813114541301716 0.8136811373609846
42 11.305345112039173 60.5855076960414 38.82489984609878 6.637056727057097 2.212352242352402 2.212352242352402 0.0 0.0 0.6858728758951139 0.7277213739552836
43 60.153149594718506 41.71963991761549 43.73487253457968 6.703760256111267 2.2345867520370626 2.2345867520370626 0.0 -0.0 0.8971229945165649 0.4417808650333688
44 41.74061262558532 20.203523872964077 26.287950710205603 6.771134166777324 2.257044722259092 2.257044722259092 0.0 -0.0 0.7662793896249596 0.6425075073771507
45 46.94477223730839 54.14576528135581 43.903198235428725 6.839185196502856 2.279728398834246 2.279728398834246 0.0 -0.0 0.8021859139948743 0.5970743332184094
46 15.386829644916629 47.45043679574564 15.3429886542073 6.907920150447099 2.3026400501490722 2.3026400501490722 0.0 0.0 0.6689296931602822 0.7433256793683982
47 46.83223191470625 23.3729646939751 15.954254538703692 6.977345902163266 2.3257819673877553 2.3257819673877553 0.0 -0.0 0.8121614142020023 0.5834328044268712
48 0.19982231763426545 47.70424998291671 13.541172257661904 7.047469394284085 2.3491564647613625 2.3491564647613625 0.0 0.0 0.43861391052531945 0.8986756019241242
49 26.118789138445738 2.9219269568131567 6.327200073331171 7.1182976392171495 2.372765879739051 2.372765879739051 0.0 -0.0 0.7611420715427216 0.6485851886434459
50 25.673497337276576 20.101683768911943 59.82378423562441 7.189837719846179 2.3966125732820283 2.3966125732820283 0.0 0.0 0.5689873473401131 0.8223462765568174
51 45.31000880922468 24.018666125093546 39.45758592779595 7.262096790238712 2.4206989300795607 2.4206989300795607 0.0 -0.0 0.9816329176571261 0.1907794930592849
52 31.839927222177405 11.011181523217543 19.001926835923094 7.335082076362049 2.445027358787313 2.445027358787313 0.0 -0.0 0.8312938914163103 0.5558331279205367
53 7.517790482011007 60.11253866788878 6.488238451313411 7.408800876805394 2.4696002922685185 2.4696002922685185 0.0 0.0 0.4937832216878833 0.8695850332081013
54 37.80884267570411 46.5326275811539 39.74753294659232 7.483260563510627 2.494420187836873 2.494420187836873 0.0 -0.0 0.7425013715714329 0.6698445440656666
55 23.810316035955072 41.68265299224096 14.21708444917801 7.483260563510627 2.494420187836873 2.494420187836873 0.0 -0.0 0.899222239431846 0.4374921303419936
56 41.063422924442804 7.0749208693237895 18.188673205545253 7.558468582508313 2.5194895275027784 2.5194895275027784 0.0 0.0 0.591041689671776 0.8066410112744902
57 53.444701280488566 59.13813400522389 55.92474946186427 7.558468582508313 2.5194895275027784 2.5194895275027784 0.0 0.0 0.6906372933410847 0.7232013060320761
58 27.78135426313006 37.75611724162944 34.0348725587558 7.634432454662927 2.5448108182209723 2.5448108182209723 0.0 -0.0 0.9778925487455288 0.20910801779935065
59 37.96972576291913 57.43424096421517 21.6732197596336 7.634432454662927 2.5448108182209723 2.5448108182209723 0.0 -0.0 0.8334397726994561 0.5526103014626843
60 54.418837952007095 27.241854343541558 52.65204489957037 7.711159776425261 2.5703865921417095 2.5703865921417095 0.0 -0.0 0.8251393648538317 0.5649292243888745
61 6.492034181144173 6.81985488374735 41.302016745885936 7.711159776425261 2.5703865921417095 2.5703865921417095 0.0 -0.0 0.8342848482439009 0.5513336485202505
62 18.0894717541571 9.58949772003191 41.18214677951458 7.788658220590998 2.5962194068636233 2.5962194068636233 0.0 0.0 0.6993489688984815 0.7147803996337831
63 35.1615067733969 5.353028200660489 50.414899182463024 7.788658220590998 2.5962194068636233 2.5962194068636233 0.0 0.0 0.6638694557235675 0.747848477806363
64 43.38103331602933 34.10404074641141 47.155808644568125 7.8669355370694305 2.6223118456898016 2.6223118456898016 0.0 0.0 0.5469534661185369 0.8371630103515794
65 15.821870456219308 29.051849040048058 6.159890667063071 7.8669355370694305 2.6223118456898016 2.6223118456898016 0.0 0.0 0.534266604389083 0.8453160328744268
66 22.957614431039225 52.40224872868303 30.6762559496945 7.945999553657155 2.6486665178857636 2.6486665178857636 0.0 0.0 0.49259387534365895 0.8702593142126752
67 52.28556974716156 10.769372540139152 10.086294279922885 7.945999553657155 2.6486665178857636 2.6486665178857636 0.0 -0.0 0.7991221049958454 0.6011687461162707
68 37.46703441557605 22.137978722670123 23.671374976981237 8.025858176822291 2.6752860589407743 2.6752860589407743 0.0 -0.0 0.8113628171424923 0.5845428803420658
69 34.79315259094329 13.865968878928813 56.80649504095544 8.025858176822291 2.6752860589407743 2.6752860589407743 0.0 0.0 0.69974083585519 0.7143967823532522
70 13.354271800557123 60.67628618613008 17.362091508481583 8.106519392493178 2.7021731308310653 2.7021731308310653 0.0 -0.0 0.9226100212719841 0.3857340387475665
71 13.479382094088265 4.135568785783301 24.11935213978756 8.106519392493178 2.7021731308310653 2.7021731308310653 0.0 -0.0 0.8908476943010929 0.4543020862360491
72 7.637013760891485 41.87246972558745 7.676528778625021 8.187991266858704 2.729330422286269 2.729330422286269 0.0 -0.0 0.9180976465577227 0.39635427509384946
73 39.899646949272324 34.028389779296724 27.38491578711528 8.187991266858704 2.729330422286269 2.729330422286269 0.0 0.0 0.6852526383261238 0.7283054453092375
74 40.6621699497954 16.033018122031354 13.932998173807762 8.270281947174427 2.7567606490581458 2.7567606490581458 0.0 0.0 0.6622208999947843 0.7493086677799063
75 49.541258878838164 37.57227668829187 47.412219236947585 8.270281947174427 2.7567606490581458 2.7567606490581458 0.0 0.0 0.6669694181073614 0.7450850926636016
76 1.1852626454713682 13.940962050217545 30.228845907105292 8.353399662576605 2.78446655419226 2.78446655419226 0.0 0.0 0.4849872773235938 0.8745212066235144
77 13.761875445603888 44.36124575078223 20.33505759689128 8.353399662576605 2.78446655419226 2.78446655419226 0.0 -0.0 0.724549744492829 0.6892225096116464
78 2.151392653677018 11.250135102380133 13.315070558176751 8.437352724906406 2.8124509083021256 2.8124509083021256 0.0 0.0 0.646327957303847 0.7630597431442944
79 2.204651713993976 24.28377708349313 27.64805938440542 8.437352724906406 2.8124509083021256 2.8124509083021256 0.0 0.0 0.4210348644808628 0.9070444547493698
80 2.8761643166953292 7.954246232946091 23.038099180666173 8.522149529539853 2.8407165098465943 2.8407165098465943 0.0 0.0 0.5786941501693628 0.8155446527074768
81 55.1039430680747 51.13292376023111 28.012418021542832 8.522149529539853 2.8407165098465943 2.8407165098465943 0.0 0.0 0.683142879342022 0.730284743373632
82 11.02719755508773 4.702440165593751 5.518205869888856 8.607798556227934 2.8692661854092725 2.8692661854092725 0.0 0.0 0.3480344086077516 0.937481760049257
83 14.372725377385155 44.028808689552186 2.786922658057605 8.607798556227934 2.8692661854092725 2.8692661854092725 0.0 -0.0 0.8280938516825816 0.560589486884571
84 34.4044042745568 24.07185842331842 5.613698163763443 8.694308369944773 2.8981027899816265 2.8981027899816265 0.0 -0.0 0.8521868438699086 0.5232375972109076
85 20.541423407810267 44.490614675387796 26.492127326614728 8.694308369944773 2.8981027899816265 2.8981027899816265 0.0 0.0 0.2683204071818837 0.9633297250109892
86 8.034531239529464 60.7921430576166 57.26653117803976 8.781687621743997 2.927229207247991 2.927229207247991 0.0 0.0 0.5717525694490604 0.8204261083902665
87 8.197391136664919 58.36654666151345 45.57649503356006 8.781687621743997 2.927229207247991 2.927229207247991 0.0 -0.0 0.7407334016199733 0.6717990977401677
88 34.606824455183144 46.073626303662586 55.707578436976405 8.869945049623595 2.9566483498744973 2.9566483498744973 0.0 0.0 0.6524446383875427 0.7578363898885753
89 36.7684324403081 25.405540479043978 47.49597695150066 8.869945049623595 2.9566483498744973 2.9566483498744973 0.0 0.0 0.3815125934194192 0.9243636411404275
90 19.55688338980405 19.75309385924365 50.986749911347076 8.959089479399776 2.9863631597998945 2.9863631597998945 0.0 -0.0 0.7664413141092511 0.642314340511314
91 28.20078002163182 59.23459760627767 27.26888852058623 8.959089479399776 2.9863631597998945 2.9863631597998945 0.0 -0.0 0.7164030651197486 0.6976866404676452
92 51.51525363149097 16.64375179873545 34.272377461602396 9.049129825589649 3.016376608529859 3.016376608529859 0.0 0.0 0.3159382626609752 0.9487797500931208
93 16.022411690650213 32.48899849140373 36.43635845889951 9.049129825589649 3.016376608529859 3.016376608529859 0.0 -0.0 0.807675111463051 0.5896277760783901
94 51.96006519231597 15.787447451150655 46.914668516100015 9.140075092303082 3.0466916974343676 3.0466916974343676 0.0 0.0 0.5856043209472178 0.8105970511221638
95 40.165262480818896 59.74328615256173 55.29287502967246 9.140075092303082 3.0466916974343676 3.0466916974343676 0.0 -0.0 0.8283891439806925 0.5601530381377355
96 44.41058359226841 9.12977779339151 40.83831242948383 9.231934374142615 3.077311458047575 3.077311458047575 0.0 0.0 0.6380161188650698 0.7700230074928626
97 29.211949804127585 54.79658714203987 19.680523581383014 9.231934374142615 3.077311458047575 3.077311458047575 0.0 0.0 0.5652655734899162 0.8249089837231233
98 19.017877754608172 21.86169136314555 40.17537203702166 9.32471685711282 3.1082389523709004 3.1082389523709004 0.0 -0.0 0.9884337224668884 0.15165347437579585
99 47.674735507528254 42.29349297321501 7.130612759779394 9.32471685711282 3.1082389523709004 3.1082389523709004 0.0 0.0 0.644584962479319 0.7645326848117973
100 28.303865945234627 35.0428232467978 55.89609821774541 9.418431819539382 3.1394772731798337 3.1394772731798337 0.0 -0.0 0.7665764345255346 0.6421530736748979
101 14.796458547992255 23.74045087817117 0.06711524070493624 9.418431819539382 3.1394772731798337 3.1394772731798337 0.0 -0.0 0.7486465484609144 0.6629693397718779
102 39.14066771031069 41.35711835594551 10.239395732613033 9.513088632996546 3.171029544332228 3.171029544332228 0.0 -0.0 0.764238184631255 0.644934102952793
103 24.570545603186382 45.54639145540253 59.818926420058574 9.513088632996546 3.171029544332228 3.171029544332228 0.0 -0.0 0.7262700822056904 0.6874094614514261
104 50.129048605912644 59.85352982311511 49.512790901196695 9.608696763244808 3.2028989210815375 3.2028989210815375 0.0 0.0 0.6864264585310771 0.7271992278794606
105 23.973414064056623 50.228676316018166 10.882348759067746 9.608696763244808 3.2028989210815375 3.2028989210815375 0.0 -0.0 0.8498704758576332 0.5269916263713497
106 12.667508370090816 14.876925321336078 47.68204864227958 9.705265771176354 3.235088590392151 3.235088590392151 0.0 -0.0 0.793590538753224 0.6084521811953406
107 38.4332370468165 47.29074866511099 19.20694532033612 9.705265771176354 3.235088590392151 3.235088590392151 0.0 -0.0 0.8299364941277125 0.5578578812878792
108 54.83299891436613 41.78979730532087 58.545586275660966 9.802805313772978 3.2676017712576297 3.2676017712576297 0.0 -0.0 0.7596155095013813 0.650372414640225
109 60.15966720098889 40.18334549912376 5.321322460441671 9.802805313772978 3.2676017712576297 3.2676017712576297 0.0 -0.0 0.746179639226726 0.6657446552571586
110 45.13438203447055 15.77802361110992 52.81508951126389 9.901325145069933 3.300441715023282 3.300441715023282 0.0 -0.0 0.7434755474029917 0.6687631198068729
111 31.583184741027914 40.74989631349236 27.02303236565028 9.901325145069933 3.300441715023282 3.300441715023282 0.0 -0.0 0.7635489887521677 0.6457499065238353
112 52.03542151470887 0.012275347463947277 19.185152102787406 10.000835117132533 3.3336117057109087 3.3336117057109087 0.0 -0.0 0.925703395166632 0.3782502137170186
113 18.97589094085036 10.045108253296007 11.994905049223838 10.000835117132533 3.3336117057109087 3.3336117057109087 0.0 -0.0 0.7476030998596368 0.6641457709571461
114 7.3664559197509485 4.98432050471044 34.1455687755072 10.101345181041086 3.367115060346991 3.367115060346991 0.0 -0.0 0.7095009508808979 0.7047044775642494
115 28.80441229444619 14.019876201432519 53.11070733934137 10.101345181041086 3.367115060346991 3.367115060346991 0.0 0.0 0.692332939305712 0.7215782016887105
116 13.254800097562946 32.51946289998699 54.72436257082787 10.20286538788533 3.400955129295123 3.400955129295123 0.0 0.0 0.4838188577050026 0.8751681626573412
117 51.08629492625519 37.94470245090142 25.3497847231279 10.20286538788533 3.400955129295123 3.400955129295123 0.0 0.0 0.4072390243389004 0.9133216175343166
118 47.01191063164825 18.32729788776982 60.707759396595904 10.305405889770789 3.4351352965902646 3.4351352965902646 0.0 -0.0 0.9854258972554679 0.17010526452245991
119 38.18662963403457 29.200325165211627 59.74450003134254 10.305405889770789 3.4351352965902646 3.4351352965902646 0.0 0.0 0.693566054094668 0.720393037589587
120 27.70716796197468 23.89955147413776 31.282393369082108 10.408976940833277 3.469658980277718 3.469658980277718 0.0 -0.0 0.8546373086497397 0.5192254526349123
121 0.4404120694825542 39.00386787683796 58.4787506456781 10.408976940833277 3.469658980277718 3.469658980277718 0.0 -0.0 0.738138054050796 0.6746496966293722
122 57.338960994197926 27.19733082323509 60.77673768423086 10.513588898263851 3.5045296327546285 3.5045296327546285 0.0 0.0 0.30497028615780525 0.9523618663936657
123 42.74456697056505 42.21423167383203 53.39081725758224 10.513588898263851 3.5045296327546285 3.5045296327546285 0.0 -0.0 0.8240326158671573 0.5665423620411186
124 7.748940713210973 46.35513398755429 0.5411421856528539 10.619252223345741 3.53975074111524 3.53975074111524 0.0 -0.0 0.7351480847541838 0.6779065521753388
125 0.7084080968479509 57.39223477183855 51.71045568496834 10.619252223345741 3.53975074111524 3.53975074111524 0.0 0.0 0.6354145425399089 0.7721711980699606
126 32.4242101669628 0.26199232521090027 43.768620852771306 10.725977482499276 3.575325827499783 3.575325827499783 0.0 -0.0 0.9631928649301144 0.2688112812880415
127 57.41465049436109 20.57814818986285 42.3857551131011 10.725977482499276 3.575325827499783 3.575325827499783 0.0 0.0 0.6645731125154195 0.7472232451694524
128 8.23079895242584 48.19854916299251 52.189901799434466 10.83377534833925 3.611258449446415 3.611258449446415 0.0 -0.0 0.837305869343264 0.5467347447925007
129 33.384564361644934 1.2097509932313628 13.920908923783234 10.83377534833925 3.611258449446415 3.611258449446415 0.0 0.0 0.6718759690179156 0.7406636768846148
130 31.773081367879932 39.991945353043896 14.14665354043589 10.942656600742472 3.6475522002474823 3.6475522002474823 0.0 -0.0 0.8172568989423515 0.5762735124323614
131 4.057573258237233 31.056624124253865 39.695873037471834 10.942656600742472 3.6475522002474823 3.6475522002474823 0.0 0.0 0.5650588956672867 0.8250505708302167
132 25.786037559719592 60.81420751795846 53.96219816983569 11.052632127924614 3.684210709308229 3.684210709308229 0.0 0.0 0.5632303093681869 0.8262999568008076
133 11.576769852410914 46.71377831212397 34.453818040350846 11.052632127924614 3.684210709308229 3.684210709308229 0.0 0.0 0.7047758212396541 0.7094300823872436
134 0.42657905713846267 32.68232054825633 48.998647891092766 11.163712927530003 3.7212376425099913 3.7212376425099913 0.0 -0.0 0.7457546235329385 0.6662207152882933
135 41.652860502690565 49.30840923824451 0.8964232114189177 11.163712927530003 3.7212376425099913 3.7212376425099913 0.0 0.0 0.5807371118896761 0.8140911539097067
136 21.48026299214652 4.81336170428399 0.028865373532213263 11.275910107731324 3.758636702577127 3.758636702577127 0.0 -0.0 0.7765636880913803 0.6300387593933514
137 3.892116959622588 47.839974697249424 20.850560884030507 11.275910107731324 3.758636702577127 3.758636702577127 0.0 -0.0 0.9207785641385271 0.39008567754147583
138 53.507490305717944 17.556504563477283 26.00532341333726 11.389234888340102 3.796411629446668 3.796411629446668 0.0 0.0 0.5933031767685688 0.8049790931672228
139 8.409270718384615 11.875235459739269 60.46267870431888 11.389234888340102 3.796411629446668 3.796411629446668 0.0 0.0 0.36293328461656904 0.9318151270061183
140 60.54468812893187 58.38071767444953 39.506267402860516 11.503698601928964 3.8345662006429815 3.8345662006429815 0.0 0.0 0.5657838974393875 0.8245535649054563
141 18.68586220496334 45.68657623688944 53.90904777391713 11.503698601928964 3.8345662006429815 3.8345662006429815 0.0 0.0 0.5898626798291705 0.8075035720941112
142 7.424816191089345 16.875886129244456 8.87659221864293 11.61931269496403 3.8731042316547386 3.8731042316547386 0.0 0.0 0.494526605223718 0.8691624915548904
143 31.172428898969503 59.947378200658015 0.2167044803933953 11.61931269496403 3.8731042316547386 3.8731042316547386 0.0 0.0 0.6621201748514545 0.7493976741721844
144 9.930827728338816 26.931205309042728 46.0456055849233 11.736088728951636 3.912029576317278 3.912029576317278 0.0 -0.0 0.8358120424685423 0.5490156916378287
145 9.738233911087818 26.104979090602143 15.926861555846735 11.736088728951636 3.912029576317278 3.912029576317278 0.0 -0.0 0.7380766977143534 0.6747168208152773
146 20.63688570616038 55.52773741027132 48.20370121409211 11.854038381592176 3.951346127197452 3.951346127197452 0.0 0.0 0.5600689403365469 0.8284460043179022
147 38.308462838471364 19.94218154548647 34.11161831587178 11.854038381592176 3.951346127197452 3.951346127197452 0.0 -0.0 0.8053653384335279 0.5927787712543771
148 60.69726626366525 18.28113901493601 53.62795646991474 11.973173447949499 3.9910578159831958 3.9910578159831958 0.0 -0.0 0.9475491048281723 0.31961022189430877
149 46.981973699920246 60.129254405157404 25.803081769264317 11.973173447949499 3.9910578159831958 3.9910578159831958 0.0 -0.0 0.8855269061838191 0.46458809543994295
150 17.629140440047536 30.310567567489798 22.723904105887748 12.093505841629147 4.0311686138763845 4.0311686138763845 0.0 -0.0 0.8997163709941051 0.43647502994466686
151 32.46454932076411 32.16416792677238 39.75808420324763 12.093505841629147 4.0311686138763845 4.0311686138763845 0.0 0.0 0.6949034215940625 0.7191030765174521
152 56.00049453242683 2.190291967459321 0.013044690308929352 12.215047595970953 4.071682531990295 4.071682531990295 0.0 0.0 0.6496096252583186 0.7602679361723385
153 32.94914809557742 41.46049214202068 5.459576938056606 12.215047595970953 4.071682531990295 4.071682531990295 0.0 0.0 0.6980264017745981 0.7160720232110785
154 37.91077572611109 14.943400081994678 6.584359569563022 12.337810865251358 4.112603621750422 4.112603621750422 0.0 -0.0 0.9126309719920443 0.4087844284716046
155 22.813352126094653 32.31771084823465 8.97381876618722 12.337810865251358 4.112603621750422 4.112603621750422 0.0 0.0 0.34897032679986184 0.9371337743423815
156 32.758453787784426 44.466141780341594 48.407587126877026 12.461807925900136 4.153935975299957 4.153935975299957 0.0 0.0 0.6995675014656925 0.7145665195718649
157 24.390767041930996 30.65844422412586 47.56706350870906 12.461807925900136 4.153935975299957 4.153935975299957 0.0 0.0 0.63565327495599 0.7719746848425306
158 50.69173778345454 59.50912416151586 35.34660747282649 12.587051177726286 4.195683725908722 4.195683725908722 0.0 -0.0 0.7426985308561326 0.6696259345814963
159 24.136612743786234 22.090652248720744 15.373592061536943 12.587051177726286 4.195683725908722 4.195683725908722 0.0 0.0 0.4891044501540252 0.8722252213961303
160 47.36212426163857 60.80900702816867 2.2325892119132744 12.713553145159354 4.23785104838648 4.23785104838648 0.0 0.0 0.6466947184788655 0.7627489371290798
161 29.680824132545315 9.034236357958019 36.34965320248803 12.713553145159354 4.23785104838648 4.23785104838648 0.0 0.0 0.6377575578887067 0.7702371695496348
162 59.882707087924544 2.3308682230896514 7.83448145582064 12.841326478501422 4.280442159500446 4.280442159500446 0.0 0.0 0.6701572236966805 0.7422191694689361
163 40.22164666633763 0.48300806543437164 32.77597834713565 12.841326478501422 4.280442159500446 4.280442159500446 0.0 -0.0 0.7797338016261434 0.6261111711203069
164 43.29124456386855 42.92015305522903 33.98037681146031 12.970383955192778 4.323461318397593 4.323461318397593 0.0 0.0 0.6966086930688543 0.7174512727293072
165 60.19064914190486 32.7630512463109 17.297211158809798 12.970383955192778 4.323461318397593 4.323461318397593 0.0 -0.0 0.8994069955971553 0.43711217813153935
7_T 19.37944371709311 -3.3972294506042715 37.62621509631602 4.6770548263447145 1.5590182754482278 1.5590182754482278 0.0 -0.0 0.7603958793842515 0.6494598575858641
11_F 19.954440202204808 34.90790968028416 -0.46804275078603297 4.867929054748088 1.6226430182493745 1.6226430182493745 0.0 0.0 0.49983922045674145 0.866118209999765
23_T 41.19051052857729 -0.31375064405515474 46.36525774977926 5.488574682940161 1.8295248943134257 1.8295248943134257 0.0 -0.0 0.7582829367961579 0.651925599868416
25_B 14.824540197613164 61.67897549607079 52.14981750027424 5.599451246372603 1.8664837487908381 1.8664837487908381 0.0 0.0 0.6637035342538496 0.7479957343587923
26_R 63.000344734050394 43.99337769493027 29.097346300981776 5.655726666978232 1.8852422223260803 1.8852422223260803 0.0 0.0 0.5361151400853296 0.8441448670526212
30_T 20.05274719348868 -0.6209282599544679 26.436774251793587 5.886541250878173 1.9621804169594064 1.9621804169594064 0.0 -0.0 0.8433777540022546 0.5373210995802349
31_L -0.38293916887284496 40.857809206117714 31.69891646515981 5.9457019739972665 1.9819006579991345 1.9819006579991345 0.0 0.0 0.6952778540174372 0.7187410560924617
36_F 40.48159860520933 7.257122309167344 -1.5799958675354944 6.250544632929162 2.083514877643101 2.083514877643101 0.0 -0.0 0.739632735620696 0.6730107104632479
40_L -1.734074446002566 21.6722966235567 14.846120255052512 6.505634198523214 2.1685447328410508 2.1685447328410508 0.0 -0.0 0.8608342640850161 0.5088854191045453
42_T 11.305345112039173 -0.31449230395860184 38.82489984609878 6.637056727057097 2.212352242352402 2.212352242352402 0.0 0.0 0.6858728758951139 0.7277213739552836
43_L -0.7468504052814922 41.71963991761549 43.73487253457968 6.703760256111267 2.2345867520370626 2.2345867520370626 0.0 -0.0 0.8971229945165649 0.4417808650333688
48_R 61.09982231763426 47.70424998291671 13.541172257661904 7.047469394284085 2.3491564647613625 2.3491564647613625 0.0 0.0 0.43861391052531945 0.8986756019241242
49_B 26.118789138445738 63.82192695681316 6.327200073331171 7.1182976392171495 2.372765879739051 2.372765879739051 0.0 -0.0 0.7611420715427216 0.6485851886434459
50_F 25.673497337276576 20.101683768911943 -1.0762157643755899 7.189837719846179 2.3966125732820283 2.3966125732820283 0.0 0.0 0.5689873473401131 0.8223462765568174
53_T 7.517790482011007 -0.7874613321112207 6.488238451313411 7.408800876805394 2.4696002922685185 2.4696002922685185 0.0 0.0 0.4937832216878833 0.8695850332081013
56_B 41.063422924442804 67.97492086932378 18.188673205545253 7.558468582508313 2.5194895275027784 2.5194895275027784 0.0 0.0 0.591041689671776 0.8066410112744902
57_T 53.444701280488566 -1.7618659947761088 55.92474946186427 7.558468582508313 2.5194895275027784 2.5194895275027784 0.0 0.0 0.6906372933410847 0.7232013060320761
59_T 37.96972576291913 -3.465759035784828 21.6732197596336 7.634432454662927 2.5448108182209723 2.5448108182209723 0.0 -0.0 0.8334397726994561 0.5526103014626843
61_B 6.492034181144173 67.71985488374735 41.302016745885936 7.711159776425261 2.5703865921417095 2.5703865921417095 0.0 -0.0 0.8342848482439009 0.5513336485202505
63_B 35.1615067733969 66.25302820066048 50.414899182463024 7.788658220590998 2.5962194068636233 2.5962194068636233 0.0 0.0 0.6638694557235675 0.747848477806363