ITEM: TIMESTEP
573
ITEM: NUMBER OF ATOMS
256
ITEM: BOX BOUNDS ff ff ff
0 60.9
60.9 0
60.9 0
ITEM: ATOMS id x y z AsphericalShapeX AsphericalShapeY AsphericalShapeZ OrientationX OrientationY OrientationZ OrientationW
1 46.8809398375422 43.78399400969844 23.68024992535307 4.051744905391383 1.3505816351304663 1.3505816351304663 0.0 -0.0 0.7863642711635499 0.6177630881150306
2 6.83249204908704 20.40723910899366 22.274978612022345 4.092465618672982 1.3641552062243008 1.3641552062243008 0.0 -0.0 0.8896314041555925 0.4566792799549252
3 17.057978290606005 15.2072475374489 57.592461422649066 4.133595581926779 1.3778651939756201 1.3778651939756201 0.0 0.0 0.631512325711268 0.7753658378305981
4 19.386581906812893 44.67090827519578 46.316753223608636 4.1751389081835955 1.391712969394537 1.391712969394537 0.0 0.0 0.5765741652112841 0.8170448164029381
5 43.284536326721444 25.706703434423478 19.299771453918293 4.217099751810458 1.4056999172701534 1.4056999172701534 0.0 -0.0 0.8873914294477543 0.4610167577677315
6 26.61306620527209 15.547486354342169 21.23097444028849 4.25948230892675 1.4198274363089227 1.4198274363089227 0.0 0.0 0.643710445538684 0.7652691437033046
7 23.021592933798914 58.22497588045493 35.708810824014435 4.302290817823503 1.4340969392744944 1.4340969392744944 0.0 -0.0 0.7603958793842515 0.6494598575858641
8 43.681209460282886 34.440269411561125 15.865961434462704 4.345529559387278 1.4485098531291187 1.4485098531291187 0.0 -0.0 0.7854601334426244 0.6189122545016335
9 51.938006346975676 3.6843755128732587 52.73022461403731 4.389202857528361 1.463067619176122 1.463067619176122 0.0 -0.0 0.7176002965020949 0.6964551776389529
10 47.871066663283095 16.307659222066405 11.193282421297539 4.433315079612835 1.4777716932042826 1.4777716932042826 0.0 0.0 0.38534345666417513 0.9227732226317065
11 21.951788655447686 35.45345388131634 59.951999903851025 4.4778706368996835 1.492623545633236 1.492623545633236 0.0 0.0 0.49983922045674145 0.866118209999765
12 9.028453824727919 15.20860216303974 24.79357380968129 4.522873984981751 1.507624661660611 1.507624661660611 0.0 0.0 0.2746680171135514 0.9615391205639581
13 7.555114369891266 46.86485137691823 16.124269877165496 4.568329624231539 1.5227765414104997 1.5227765414104997 0.0 -0.0 0.7886508549344257 0.614841303924191
14 8.22182275409305 26.5261392311005 26.055123613693606 4.614242100250578 1.5380807000835086 1.5380807000835086 0.0 -0.0 0.7750680292508737 0.6318777967559605
15 26.321065967315636 42.509522771959496 20.973812196156505 4.66061600432486 1.5535386681083179 1.5535386681083179 0.0 0.0 0.6340811782098568 0.7732664866913604
16 16.491709403276936 31.962688242289985 53.02670022642329 4.707455973883585 1.5691519912945038 1.5691519912945038 0.0 -0.0 0.7629176367612683 0.6464956918020424
17 21.67695118219066 27.583455100121736 34.46985530644771 4.754766692962441 1.5849222309874593 1.5849222309874593 0.0 0.0 0.6579222258448839 0.7530858813836
18 38.1404289506548 31.3441719951634 14.844509393251268 4.802552892672918 1.600850964224299 1.600850964224299 0.0 0.0 0.506211649243881 0.8624092799650234
19 20.39905667677306 10.072951470731073 38.001272818723145 4.850819351674853 1.6169397838916073 1.6169397838916073 0.0 0.0 0.6434542777811493 0.7654845474633303
20 31.088450803799773 45.97879766159859 36.38431489850602 4.899570896654283 1.633190298884781 1.633190298884781 0.0 -0.0 0.7861857262579329 0.6179902942832407
21 44.94328405952921 20.06406757347706 43.32347707278043 4.948812402806365 1.649604134268775 1.649604134268775 0.0 0.0 0.6069811502172251 0.7947162281474907
22 19.830198299531226 8.024138481477786 30.616334964733237 4.998548794322745 1.6661829314409062 1.6661829314409062 0.0 -0.0 0.8910647246123514 0.45387625687131333
23 41.45592181914188 58.45973432669295 45.60647266336328 5.048785044884074 1.6829283482947188 1.6829283482947188 0.0 -0.0 0.7582829367961579 0.651925599868416
24 27.941813055609153 2.725936386178039 48.62933352072859 5.099526178157198 1.6998420593857382 1.6998420593857382 0.0 0.0 0.5255054740936084 0.8507902189715464
25 13.556512704232201 1.1448893040414612 52.207973455064995 5.150777268297872 1.7169257560992646 1.7169257560992646 0.0 0.0 0.6637035342538496 0.7479957343587923
26 3.435605100648342 51.537957376110676 31.65705673710368 5.202543440457529 1.7341811468191828 1.7341811468191828 0.0 0.0 0.5361151400853296 0.8441448670526212
27 60.740460960394195 33.05438445164047 30.2734653135193 5.2548298712967725 1.7516099570989159 1.7516099570989159 0.0 -0.0 0.7297620279401082 0.6837012378054764
28 18.86404551338554 30.818112225196714 29.285708035435228 5.307641789502192 1.769213929834039 1.769213929834039 0.0 -0.0 0.9828164757017253 0.18458541407500267
29 46.27965522437395 32.980848502299914 29.794223364263676 5.360984476309617 1.7869948254365546 1.7869948254365546 0.0 -0.0 0.8740853421614372 0.4857723897243679
30 18.895008551919897 57.746619517138875 30.05273178935333 5.414863266032153 1.8049544220107332 1.8049544220107332 0.0 -0.0 0.8433777540022546 0.5373210995802349
31 56.64491540797526 47.39106699847506 34.4299177664781 5.469283546593642 1.8230945155312523 1.8230945155312523 0.0 0.0 0.6952778540174372 0.7187410560924617
32 57.51450971520785 34.85185472217861 35.36694258179895 5.524250760067646 1.841416920022563 1.841416920022563 0.0 0.0 0.6353234605105568 0.7722461398575527
33 26.837773613968537 28.89412914692 24.356572880381595 5.579770403221185 1.8599234677403675 1.8599234677403675 0.0 0.0 0.6411270229476993 0.7674347792784871
34 23.105664211089266 20.623934428074726 18.502512513685513 5.635848028064772 1.8786160093549635 1.8786160093549635 0.0 -0.0 0.7453722743584635 0.6666484625480594
35 22.42341841330597 50.59246536058869 42.30366625208915 5.692489242407814 1.8974964141359667 1.8974964141359667 0.0 -0.0 0.7109313362059317 0.7032614273514853
36 43.18945207759652 5.631326418416345 1.0589932352847211 5.749699710418816 1.916566570139645 1.916566570139645 0.0 -0.0 0.739632735620696 0.6730107104632479
37 22.724612833152033 56.6692052003686 19.18345769634592 5.807485153192425 1.9358283843974897 1.9358283843974897 0.0 0.0 0.5163603530767541 0.8563714064414165
38 18.612232654160298 13.504695597153463 18.353021093576267 5.865851349320808 1.9552837831069054 1.9552837831069054 0.0 0.0 0.5145463711011363 0.8574625542766586
39 10.394444823567238 35.25105014935246 23.043559171476513 5.924804135472336 1.9749347118241123 1.9749347118241123 0.0 0.0 0.5880831456971182 0.8088004783300898
40 60.596372581158015 20.423883827327856 14.828602052265575 5.984349406974876 1.9947831356582644 1.9947831356582644 0.0 -0.0 0.8608342640850161 0.5088854191045453
41 15.66968281783064 18.197502616902945 34.85723804816898 6.044493118404952 2.0148310394683007 2.0148310394683007 0.0 0.0 0.5813114541301716 0.8136811373609846
42 11.673100930223054 3.793811237866344 37.51900882953078 6.105241284183945 2.035080428061344 2.035080428061344 0.0 0.0 0.6858728758951139 0.7277213739552836
43 57.22790000488331 34.57994673608859 40.34747723446055 6.1665999791792645 2.055533326393069 2.055533326393069 0.0 -0.0 0.8971229945165649 0.4417808650333688
44 41.919446903975754 14.063341632787875 25.168251876072755 6.228575339311202 2.076191779770385 2.076191779770385 0.0 -0.0 0.7662793896249596 0.6425075073771507
45 41.21799382811535 45.001721923555394 41.800431253336306 6.291173562167679 2.097057854055861 2.097057854055861 0.0 -0.0 0.8021859139948743 0.5970743332184094
46 13.876178957401766 44.20082437514939 17.715850388975323 6.354400907622825 2.118133635874307 2.118133635874307 0.0 0.0 0.6689296931602822 0.7433256793683982
47 45.554892703870856 19.7186278773385 17.72187022827002 6.418263698464286 2.139421232821429 2.139421232821429 0.0 -0.0 0.8121614142020023 0.5834328044268712
48 59.663909143933296 49.81901843337851 12.910247948421867 6.482768321024142 2.1609227736747147 2.1609227736747147 0.0 0.0 0.43861391052531945 0.8986756019241242
49 24.316313018740093 4.684367694666672 6.099018837005478 6.54792122581834 2.182640408606122 2.182640408606122 0.0 -0.0 0.7611420715427216 0.6485851886434459
50 26.022722610777052 19.881361544254244 59.46899966402626 6.613728928191828 2.204576309397252 2.204576309397252 0.0 0.0 0.5689873473401131 0.8223462765568174
51 45.4736921840656 25.65172540362709 38.98389533736785 6.680198008969582 2.22673266965651 2.22673266965651 0.0 -0.0 0.9816329176571261 0.1907794930592849
52 33.283588122497136 15.913747995542764 19.14744393372457 6.747335115115078 2.2491117050383225 2.2491117050383225 0.0 -0.0 0.8312938914163103 0.5558331279205367
53 12.26428115386053 60.69791252322598 7.634809101703295 6.815146960394708 2.271715653464949 2.271715653464949 0.0 0.0 0.4937832216878833 0.8695850332081013
54 33.47075425917026 51.255744347984276 40.364867660866274 6.883640326049842 2.2945467753499447 2.2945467753499447 0.0 -0.0 0.7425013715714329 0.6698445440656666
55 27.15567663915948 45.78727382311858 15.34989214787744 6.883640326049842 2.2945467753499447 2.2945467753499447 0.0 -0.0 0.899222239431846 0.4374921303419936
56 40.87127928196858 13.159058977861358 19.799453738061857 6.952822061473993 2.3176073538246644 2.3176073538246644 0.0 0.0 0.591041689671776 0.8066410112744902
57 54.481133920999156 0.24785309104234682 56.34093079943875 6.952822061473993 2.3176073538246644 2.3176073538246644 0.0 0.0 0.6906372933410847 0.7232013060320761
58 24.255655107393874 37.86046448314398 33.75532404079469 7.022699084898272 2.340899694966087 2.340899694966087 0.0 -0.0 0.9778925487455288 0.20910801779935065
59 33.783438789785556 51.938679321194066 20.026388125101153 7.022699084898272 2.340899694966087 2.340899694966087 0.0 -0.0 0.8334397726994561 0.5526103014626843
60 47.557566883636184 27.69226428730389 54.58437683727085 7.093278384083482 2.3644261280277905 2.3644261280277905 0.0 -0.0 0.8251393648538317 0.5649292243888745
61 10.010581725966437 7.30880968820814 41.81749183697866 7.093278384083482 2.3644261280277905 2.3644261280277905 0.0 -0.0 0.8342848482439009 0.5513336485202505
62 21.52880962445084 2.503059750153383 41.58832418145829 7.1645670170179905 2.3881890056726283 2.3881890056726283 0.0 0.0 0.6993489688984815 0.7147803996337831
63 34.83024653710582 0.14585389237721413 50.47272622263739 7.1645670170179905 2.3881890056726283 2.3881890056726283 0.0 0.0 0.6638694557235675 0.747848477806363
64 39.305605168000085 30.152546453409165 43.581022525432914 7.236572112624762 2.4121907042082453 2.4121907042082453 0.0 0.0 0.5469534661185369 0.8371630103515794
65 17.457232170572475 24.835354365333448 7.877777430358719 7.236572112624762 2.4121907042082453 2.4121907042082453 0.0 0.0 0.534266604389083 0.8453160328744268
66 25.84125823088459 50.23367765698819 31.078929877446505 7.309300871473099 2.436433623824404 2.436433623824404 0.0 0.0 0.49259387534365895 0.8702593142126752
67 54.511473091697596 18.174964726690902 12.351198912751773 7.309300871473099 2.436433623824404 2.436433623824404 0.0 -0.0 0.7991221049958454 0.6011687461162707
68 37.642891167721785 26.622190493129228 24.357699668100018 7.382760566499985 2.4609201888333385 2.4609201888333385 0.0 -0.0 0.8113628171424923 0.5845428803420658
69 36.630078304796335 10.447135646531526 58.18971649685967 7.382760566499985 2.4609201888333385 2.4609201888333385 0.0 0.0 0.69974083585519 0.7143967823532522
70 8.405098933552408 2.496652247059776 15.509909509850965 7.456958543735717 2.4856528479119016 2.4856528479119016 0.0 -0.0 0.9226100212719841 0.3857340387475665
71 15.459663959994817 59.747458123853825 23.22333413045284 7.456958543735717 2.4856528479119016 2.4856528479119016 0.0 -0.0 0.8908476943010929 0.4543020862360491
72 7.265197643577164 40.22595587481656 9.391692150501076 7.531902223039894 2.5106340743466626 2.5106340743466626 0.0 -0.0 0.9180976465577227 0.39635427509384946
73 34.983500903435385 33.732734586112535 28.171143251249188 7.531902223039894 2.5106340743466626 2.5106340743466626 0.0 0.0 0.6852526383261238 0.7283054453092375
74 37.08557969151302 20.884207973329225 13.777647776511204 7.607599098843141 2.5358663662810503 2.5358663662810503 0.0 0.0 0.6622208999947843 0.7493086677799063
75 52.65360627620029 40.3975591583663 45.611086554651926 7.607599098843141 2.5358663662810503 2.5358663662810503 0.0 0.0 0.6669694181073614 0.7450850926636016
76 60.58177998234171 12.678860902682953 31.625662997617155 7.684056740895788 2.5613522469653143 2.5613522469653143 0.0 0.0 0.4849872773235938 0.8745212066235144
77 14.687078143283204 44.21523398420255 23.745549790302505 7.684056740895788 2.5613522469653143 2.5613522469653143 0.0 -0.0 0.724549744492829 0.6892225096116464
78 3.064448835084491 9.162771526317833 13.51435813579688 7.761282795026058 2.587094265008686 2.587094265008686 0.0 0.0 0.646327957303847 0.7630597431442944
79 2.351799233389478 17.814491365475956 29.130432580473688 7.761282795026058 2.587094265008686 2.587094265008686 0.0 0.0 0.4210348644808628 0.9070444547493698
80 58.67196369762847 6.209785995957372 19.7262598553047 7.839284983903668 2.613094994634521 2.613094994634521 0.0 0.0 0.5786941501693628 0.8155446527074768
81 55.95860437258668 49.73817308311376 23.26040854563454 7.839284983903668 2.613094994634521 2.613094994634521 0.0 0.0 0.683142879342022 0.730284743373632
82 12.079451722792907 7.659865503212606 6.734016388618909 7.918071107812262 2.639357035937376 2.639357035937376 0.0 0.0 0.3480344086077516 0.937481760049257
83 13.997703597016864 44.834431666932964 2.28401644341628 7.918071107812262 2.639357035937376 2.639357035937376 0.0 -0.0 0.8280938516825816 0.560589486884571
84 33.820749485191094 15.87065546724403 6.172174911528295 7.997649045429936 2.665883015143355 2.665883015143355 0.0 -0.0 0.8521868438699086 0.5232375972109076
85 17.114860540306445 42.33254889043578 28.884241947889876 7.997649045429936 2.665883015143355 2.665883015143355 0.0 0.0 0.2683204071818837 0.9633297250109892
86 6.807794370983184 1.401887408307482 57.802942576613276 8.078026754617076 2.692675584872358 2.692675584872358 0.0 0.0 0.5717525694490604 0.8204261083902665
87 9.181733787102416 46.43460892484944 46.07902932742663 8.078026754617076 2.692675584872358 2.692675584872358 0.0 -0.0 0.7407334016199733 0.6717990977401677
88 33.925472351148706 47.72131547419579 55.94480417249524 8.15921227321148 2.719737424403785 2.719737424403785 0.0 0.0 0.6524446383875427 0.7578363898885753
89 38.3332726857905 25.676321908141574 49.01278411197242 8.15921227321148 2.719737424403785 2.719737424403785 0.0 0.0 0.3815125934194192 0.9243636411404275
90 19.25752062798015 16.784866528231948 49.112716351104744 8.241213719832476 2.747071239944128 2.747071239944128 0.0 -0.0 0.7664413141092511 0.642314340511314
91 32.291319543594135 1.605173438170549 27.64930570127771 8.241213719832476 2.747071239944128 2.747071239944128 0.0 -0.0 0.7164030651197486 0.6976866404676452
92 51.57404337207949 15.84851412670312 33.619755094673955 8.324039294693005 2.7746797648976593 2.7746797648976593 0.0 0.0 0.3159382626609752 0.9487797500931208
93 20.98418658055068 34.69435077902635 39.8750710832789 8.324039294693005 2.7746797648976593 2.7746797648976593 0.0 -0.0 0.807675111463051 0.5896277760783901
94 51.12248014246314 17.138752274200744 48.706443463335965 8.407697280419793 2.8025657601399527 2.8025657601399527 0.0 0.0 0.5856043209472178 0.8105970511221638
95 41.01001455821774 58.81994688811842 55.41584965959337 8.407697280419793 2.8025657601399527 2.8025657601399527 0.0 -0.0 0.8283891439806925 0.5601530381377355
96 44.048359479281615 11.133113327444523 41.13946534497079 8.492196042881151 2.830732014293761 2.830732014293761 0.0 0.0 0.6380161188650698 0.7700230074928626
97 24.957714928801632 1.397079215462853 22.237653965137213 8.492196042881151 2.830732014293761 2.830732014293761 0.0 0.0 0.5652655734899162 0.8249089837231233
98 16.714395802458796 21.70853563656654 40.33389764105265 8.577544032023683 2.8591813440078546 2.8591813440078546 0.0 -0.0 0.9884337224668884 0.15165347437579585
99 48.432312620675646 41.652961011205065 7.494895903944636 8.577544032023683 2.8591813440078546 2.8591813440078546 0.0 0.0 0.644584962479319 0.7645326848117973
100 29.313907274788875 33.43990554078059 55.91582063961765 8.663749782717286 2.887916594239135 2.887916594239135 0.0 -0.0 0.7665764345255346 0.6421530736748979
101 16.27725668073544 29.74351483640025 0.9698698097482453 8.663749782717286 2.887916594239135 2.887916594239135 0.0 -0.0 0.7486465484609144 0.6629693397718779
102 42.304998140013375 42.70715616590797 11.636380985897851 8.750821915608974 2.9169406385363708 2.9169406385363708 0.0 -0.0 0.764238184631255 0.644934102952793
103 27.53705951956348 46.65578085436545 1.3809806348000175 8.750821915608974 2.9169406385363708 2.9169406385363708 0.0 -0.0 0.7262700822056904 0.6874094614514261
104 48.1112380422949 60.3058333820452 49.7770300871079 8.838769137984805 2.9462563793282106 2.9462563793282106 0.0 0.0 0.6864264585310771 0.7271992278794606
105 21.37485032599512 55.185976045258435 10.019966220950248 8.838769137984805 2.9462563793282106 2.9462563793282106 0.0 -0.0 0.8498704758576332 0.5269916263713497
106 10.443682673714386 13.153177587867642 54.319489155284 8.927600244639823 2.9758667482132926 2.9758667482132926 0.0 -0.0 0.793590538753224 0.6084521811953406
107 41.56718951343885 59.14948137717745 18.826891317396132 8.927600244639823 2.9758667482132926 2.9758667482132926 0.0 -0.0 0.8299364941277125 0.5578578812878792
108 52.40297021695378 44.602338303471505 58.76718800810785 9.017324118759152 3.0057747062530136 3.0057747062530136 0.0 -0.0 0.7596155095013813 0.650372414640225
109 56.460073811176656 45.13459926856228 5.4834880641202774 9.017324118759152 3.0057747062530136 3.0057747062530136 0.0 -0.0 0.746179639226726 0.6657446552571586
110 44.37709685932071 13.094949721057898 50.813038510331786 9.107949732804748 3.035983244268213 3.035983244268213 0.0 -0.0 0.7434755474029917 0.6687631198068729
111 31.022647468559875 40.28481895600879 24.924171431939925 9.107949732804748 3.035983244268213 3.035983244268213 0.0 -0.0 0.7635489887521677 0.6457499065238353
112 46.76632595516357 59.167970112426126 13.258907116850004 9.199486149413582 3.0664953831379176 3.0664953831379176 0.0 -0.0 0.925703395166632 0.3782502137170186
113 20.494036867622572 10.397871042122077 10.04438970495623 9.199486149413582 3.0664953831379176 3.0664953831379176 0.0 -0.0 0.7476030998596368 0.6641457709571461
114 5.538652473326918 0.3920744561388923 34.50612422919333 9.291942522303785 3.0973141741012387 3.0973141741012387 0.0 -0.0 0.7095009508808979 0.7047044775642494
115 26.832953305996394 12.834582322146606 51.96083863781882 9.291942522303785 3.0973141741012387 3.0973141741012387 0.0 0.0 0.692332939305712 0.7215782016887105
116 12.181726721184182 29.111678745756983 56.4923196677949 9.385328097189417 3.128442699063137 3.128442699063137 0.0 0.0 0.4838188577050026 0.8751681626573412
117 52.708287380255236 38.15618190690306 28.235236120292633 9.385328097189417 3.128442699063137 3.128442699063137 0.0 0.0 0.4072390243389004 0.9133216175343166
118 47.17446512973466 17.00056204812848 60.75010378925749 9.479652212705822 3.1598840709019425 3.1598840709019425 0.0 -0.0 0.9854258972554679 0.17010526452245991
119 39.160418137261715 25.91675185953211 1.8523404718230072 9.479652212705822 3.1598840709019425 3.1598840709019425 0.0 0.0 0.693566054094668 0.720393037589587
120 29.218832510852888 25.587101066946015 31.613957621230934 9.574924301343398 3.1916414337811063 3.1916414337811063 0.0 -0.0 0.8546373086497397 0.5192254526349123
121 1.599859482634157 42.90586593652178 58.8205625202658 9.574924301343398 3.1916414337811063 3.1916414337811063 0.0 -0.0 0.738138054050796 0.6746496966293722
122 55.81992395837539 27.371806622177864 60.58608423375927 9.67115389039012 3.223717963463392 3.223717963463392 0.0 0.0 0.30497028615780525 0.9523618663936657
123 41.605523122314935 38.531257181911194 51.91047008354069 9.67115389039012 3.223717963463392 3.223717963463392 0.0 -0.0 0.8240326158671573 0.5665423620411186
124 8.423067225518604 47.49006581624687 0.0717763333071062 9.768350602885343 3.2561168676284407 3.2561168676284407 0.0 -0.0 0.7351480847541838 0.6779065521753388
125 60.33012281978409 3.5039911435156643 50.62842568857841 9.768350602885343 3.2561168676284407 3.2561168676284407 0.0 0.0 0.6354145425399089 0.7721711980699606
126 34.39925792198331 0.910461321348494 43.942080663560226 9.866524158581063 3.2888413861937043 3.2888413861937043 0.0 -0.0 0.9631928649301144 0.2688112812880415
127 55.65110734498393 23.00136609095592 44.28888500227749 9.866524158581063 3.2888413861937043 3.2888413861937043 0.0 0.0 0.6645731125154195 0.7472232451694524
128 7.550010652444456 42.703316082367216 52.438459614222594 9.965684374914632 3.321894791638209 3.321894791638209 0.0 -0.0 0.837305869343264 0.5467347447925007
129 36.920762238509575 60.18616356296105 11.52825253318571 9.965684374914632 3.321894791638209 3.321894791638209 0.0 0.0 0.6718759690179156 0.7406636768846148
130 31.310112931485875 35.753691507103035 13.799049473397657 10.065841167990696 3.355280389330216 3.355280389330216 0.0 -0.0 0.8172568989423515 0.5762735124323614
131 3.9707456609018195 18.97040078732597 38.63371709727247 10.065841167990696 3.355280389330216 3.355280389330216 0.0 0.0 0.5650588956672867 0.8250505708302167
132 25.427068561379176 59.98248454864428 55.18280557090302 10.167004553571704 3.389001517857244 3.389001517857244 0.0 0.0 0.5632303093681869 0.8262999568008076
133 13.902249145295778 46.87262641127112 36.737601483506594 10.167004553571704 3.389001517857244 3.389001517857244 0.0 0.0 0.7047758212396541 0.7094300823872436
134 60.63195344470516 35.85913803259489 48.27546471669442 10.26918464808049 3.4230615493601535 3.4230615493601535 0.0 -0.0 0.7457546235329385 0.6662207152882933
135 41.363356802892596 43.56088294348278 0.007616337930272721 10.26918464808049 3.4230615493601535 3.4230615493601535 0.0 0.0 0.5807371118896761 0.8140911539097067
136 18.97424457916466 0.1713103232573864 1.580125840282198 10.372391669611858 3.4574638898706307 3.4574638898706307 0.0 -0.0 0.7765636880913803 0.6300387593933514
137 2.7259958963063253 41.25883376081625 23.130218041650213 10.372391669611858 3.4574638898706307 3.4574638898706307 0.0 -0.0 0.9207785641385271 0.39008567754147583
138 51.83233972138869 21.587215910806464 24.81894863401849 10.476635938953901 3.492211979651268 3.492211979651268 0.0 0.0 0.5933031767685688 0.8049790931672228
139 3.5851096392930977 13.788164939806558 60.20308166738499 10.476635938953901 3.492211979651268 3.492211979651268 0.0 0.0 0.36293328461656904 0.9318151270061183
140 59.53462402606955 58.292328868439455 43.37693381630477 10.581927880620551 3.5273092935401773 3.5273092935401773 0.0 0.0 0.5657838974393875 0.8245535649054563
141 15.41933819769605 50.11230519302341 55.595523868490396 10.581927880620551 3.5273092935401773 3.5273092935401773 0.0 0.0 0.5898626798291705 0.8075035720941112
142 9.073790378349287 27.300436831268502 6.052784194641959 10.6882780238932 3.562759341297788 3.562759341297788 0.0 0.0 0.494526605223718 0.8691624915548904
143 31.52527345927068 1.0590957695823193 60.21811839859811 10.6882780238932 3.562759341297788 3.562759341297788 0.0 0.0 0.6621201748514545 0.7493976741721844
144 10.429741197051506 31.306597653784966 46.71617181253627 10.795697003875407 3.5985656679585203 3.5985656679585203 0.0 -0.0 0.8358120424685423 0.5490156916378287
145 7.914908254765059 21.236495507784678 16.451444317729983 10.795697003875407 3.5985656679585203 3.5985656679585203 0.0 -0.0 0.7380766977143534 0.6747168208152773
146 23.097163517176195 54.324752772246946 48.01025163179889 10.90419556255437 3.6347318541848357 3.6347318541848357 0.0 0.0 0.5600689403365469 0.8284460043179022
147 37.556292762075174 22.858641630902433 33.87809444131656 10.90419556255437 3.6347318541848357 3.6347318541848357 0.0 -0.0 0.8053653384335279 0.5927787712543771
148 0.16192125670984467 19.531873785478172 52.96656671744485 11.013784549876622 3.6712615166255627 3.6712615166255627 0.0 -0.0 0.9475491048281723 0.31961022189430877
149 42.3282800961533 56.942506010425646 25.64964884130877 11.013784549876622 3.6712615166255627 3.6712615166255627 0.0 -0.0 0.8855269061838191 0.46458809543994295
150 18.176620889606383 28.234919398276507 21.66700924882103 11.124474924831938 3.708158308277315 3.708158308277315 0.0 -0.0 0.8997163709941051 0.43647502994466686
151 32.191118101700575 32.00768529573724 38.66825751167723 11.124474924831938 3.708158308277315 3.708158308277315 0.0 0.0 0.6949034215940625 0.7191030765174521
152 60.805149586122624 2.197834151106467 59.67868715285863 11.236277756550196 3.7454259188500436 3.7454259188500436 0.0 0.0 0.6496096252583186 0.7602679361723385
153 35.076908871856475 43.13542983105271 4.974543034239038 11.236277756550196 3.7454259188500436 3.7454259188500436 0.0 0.0 0.6980264017745981 0.7160720232110785
154 39.64789192220623 12.336435128257596 6.35952659124368 11.3492042254075 3.783068075135802 3.783068075135802 0.0 -0.0 0.9126309719920443 0.4087844284716046
155 20.50670577100828 35.58278581325676 6.815642995021452 11.3492042254075 3.783068075135802 3.783068075135802 0.0 0.0 0.34897032679986184 0.9371337743423815
156 34.1968799894327 43.574675027830494 49.476551428573366 11.46326562414529 3.8210885413816866 3.8210885413816866 0.0 0.0 0.6995675014656925 0.7145665195718649
157 25.59325238513565 28.02986061957412 45.342131098226524 11.46326562414529 3.8210885413816866 3.8210885413816866 0.0 0.0 0.63565327495599 0.7719746848425306
158 51.74320385680963 53.97855841279226 37.71138363135469 11.57847335899819 3.8594911196660444 3.8594911196660444 0.0 -0.0 0.7426985308561326 0.6696259345814963
159 24.639753326625026 21.338350420903065 12.299421202498262 11.57847335899819 3.8594911196660444 3.8594911196660444 0.0 0.0 0.4891044501540252 0.8722252213961303
160 49.26314453840988 2.857420751123205 5.899800665247861 11.694838950835665 3.898279650278584 3.898279650278584 0.0 0.0 0.6466947184788655 0.7627489371290798
161 30.11825986883483 11.247881479211898 36.54172498018584 11.694838950835665 3.898279650278584 3.898279650278584 0.0 0.0 0.6377575578887067 0.7702371695496348
162 58.44883587088124 1.4374690665463588 8.326755879615172 11.81237403631383 3.9374580121045817 3.9374580121045817 0.0 0.0 0.6701572236966805 0.7422191694689361
163 40.87089386737742 7.050162937819228 31.38632115455638 11.81237403631383 3.9374580121045817 3.9374580121045817 0.0 -0.0 0.7797338016261434 0.6261111711203069
164 43.20811025365054 45.59882184243956 34.28698436994547 11.931090369039511 3.97703012301317 3.97703012301317 0.0 0.0 0.6966086930688543 0.7174512727293072
165 60.82593366503579 32.27882603182324 16.496362736065105 11.931090369039511 3.97703012301317 3.97703012301317 0.0 -0.0 0.8994069955971553 0.43711217813153935
7_T 23.021592933798914 -2.6750241195450712 35.708810824014435 4.302290817823503 1.4340969392744944 1.4340969392744944 0.0 -0.0 0.7603958793842515 0.6494598575858641
9_B 51.938006346975676 64.58437551287325 52.73022461403731 4.389202857528361 1.463067619176122 1.463067619176122 0.0 -0.0 0.7176002965020949 0.6964551776389529
11_F 21.951788655447686 35.45345388131634 -0.9480000961489736 4.4778706368996835 1.492623545633236 1.492623545633236 0.0 0.0 0.49983922045674145 0.866118209999765
23_T 41.45592181914188 -2.440265673307046 45.60647266336328 5.048785044884074 1.6829283482947188 1.6829283482947188 0.0 -0.0 0.7582829367961579 0.651925599868416
24_B 27.941813055609153 63.62593638617804 48.62933352072859 5.099526178157198 1.6998420593857382 1.6998420593857382 0.0 0.0 0.5255054740936084 0.8507902189715464
25_B 13.556512704232201 62.04488930404146 52.207973455064995 5.150777268297872 1.7169257560992646 1.7169257560992646 0.0 0.0 0.6637035342538496 0.7479957343587923
27_L -0.15953903960580362 33.05438445164047 30.2734653135193 5.2548298712967725 1.7516099570989159 1.7516099570989159 0.0 -0.0 0.7297620279401082 0.6837012378054764
30_T 18.895008551919897 -3.153380482861124 30.05273178935333 5.414863266032153 1.8049544220107332 1.8049544220107332 0.0 -0.0 0.8433777540022546 0.5373210995802349
36_FB 43.18945207759652 66.53132641841634 1.0589932352847211 5.749699710418816 1.916566570139645 1.916566570139645 0.0 -0.0 0.739632735620696 0.6730107104632479
36_BT 43.18945207759652 5.631326418416345 61.95899323528472 5.749699710418816 1.916566570139645 1.916566570139645 0.0 -0.0 0.739632735620696 0.6730107104632479
36_BB 43.18945207759652 66.53132641841634 61.95899323528472 5.749699710418816 1.916566570139645 1.916566570139645 0.0 -0.0 0.739632735620696 0.6730107104632479
37_T 22.724612833152033 -4.230794799631397 19.18345769634592 5.807485153192425 1.9358283843974897 1.9358283843974897 0.0 0.0 0.5163603530767541 0.8563714064414165
40_L -0.30362741884198385 20.423883827327856 14.828602052265575 5.984349406974876 1.9947831356582644 1.9947831356582644 0.0 -0.0 0.8608342640850161 0.5088854191045453
42_B 11.673100930223054 64.69381123786634 37.51900882953078 6.105241284183945 2.035080428061344 2.035080428061344 0.0 0.0 0.6858728758951139 0.7277213739552836
43_L -3.672099995116689 34.57994673608859 40.34747723446055 6.1665999791792645 2.055533326393069 2.055533326393069 0.0 -0.0 0.8971229945165649 0.4417808650333688
48_L -1.2360908560667028 49.81901843337851 12.910247948421867 6.482768321024142 2.1609227736747147 2.1609227736747147 0.0 0.0 0.43861391052531945 0.8986756019241242
49_B 24.316313018740093 65.58436769466667 6.099018837005478 6.54792122581834 2.182640408606122 2.182640408606122 0.0 -0.0 0.7611420715427216 0.6485851886434459
50_F 26.022722610777052 19.881361544254244 -1.431000335973735 6.613728928191828 2.204576309397252 2.204576309397252 0.0 0.0 0.5689873473401131 0.8223462765568174
53_T 12.26428115386053 -0.20208747677401817 7.634809101703295 6.815146960394708 2.271715653464949 2.271715653464949 0.0 0.0 0.4937832216878833 0.8695850332081013
57_B 54.481133920999156 61.14785309104234 56.34093079943875 6.952822061473993 2.3176073538246644 2.3176073538246644 0.0 0.0 0.6906372933410847 0.7232013060320761