ITEM: TIMESTEP
9
ITEM: NUMBER OF ATOMS
9
ITEM: BOX BOUNDS ff ff ff
0 10
10 0
10 0
ITEM: ATOMS id x y z AsphericalShapeX AsphericalShapeY AsphericalShapeZ OrientationX OrientationY OrientationZ OrientationW
1 0.8948876961555313 0.36218609051503003 0.5339358198752587 1.9999999999999998 1.4999999999999998 1.4999999999999998 0.0 -0.0 0.8509035245341184 0.5253219888177297
2 2.601983162575673 2.6003779242658815 4.042965389738883 1.9999999999999998 1.4999999999999998 1.4999999999999998 0.0 -0.0 0.8509035245341184 0.5253219888177297
1_RTF 10.894887696155532 0.36218609051503003 0.5339358198752587 1.9999999999999998 1.4999999999999998 1.4999999999999998 0.0 -0.0 0.8509035245341184 0.5253219888177297
1_RBF 10.894887696155532 10.36218609051503 0.5339358198752587 1.9999999999999998 1.4999999999999998 1.4999999999999998 0.0 -0.0 0.8509035245341184 0.5253219888177297
1_LBF 0.8948876961555313 10.36218609051503 0.5339358198752587 1.9999999999999998 1.4999999999999998 1.4999999999999998 0.0 -0.0 0.8509035245341184 0.5253219888177297
1_LTB 0.8948876961555313 0.36218609051503003 10.533935819875259 1.9999999999999998 1.4999999999999998 1.4999999999999998 0.0 -0.0 0.8509035245341184 0.5253219888177297
1_RTB 10.894887696155532 0.36218609051503003 10.533935819875259 1.9999999999999998 1.4999999999999998 1.4999999999999998 0.0 -0.0 0.8509035245341184 0.5253219888177297
1_RBB 10.894887696155532 10.36218609051503 10.533935819875259 1.9999999999999998 1.4999999999999998 1.4999999999999998 0.0 -0.0 0.8509035245341184 0.5253219888177297
1_LBB 0.8948876961555313 10.36218609051503 10.533935819875259 1.9999999999999998 1.4999999999999998 1.4999999999999998 0.0 -0.0 0.8509035245341184 0.5253219888177297
