ITEM: TIMESTEP
10
ITEM: NUMBER OF ATOMS
9
ITEM: BOX BOUNDS ff ff ff
0 10
10 0
10 0
ITEM: ATOMS id x y z AsphericalShapeX AsphericalShapeY AsphericalShapeZ OrientationX OrientationY OrientationZ OrientationW
1 0.8598502615407084 0.3162481206867067 0.461914426500345 2.1999999999999997 1.6499999999999997 1.6499999999999997 0.0 -0.0 0.8509035245341184 0.5253219888177297
2 2.8359775501008975 2.907170565687842 4.523953852985176 2.1999999999999997 1.6499999999999997 1.6499999999999997 0.0 -0.0 0.8509035245341184 0.5253219888177297
1_RTF 10.859850261540709 0.3162481206867067 0.461914426500345 2.1999999999999997 1.6499999999999997 1.6499999999999997 0.0 -0.0 0.8509035245341184 0.5253219888177297
1_RBF 10.859850261540709 10.316248120686707 0.461914426500345 2.1999999999999997 1.6499999999999997 1.6499999999999997 0.0 -0.0 0.8509035245341184 0.5253219888177297
1_LBF 0.8598502615407084 10.316248120686707 0.461914426500345 2.1999999999999997 1.6499999999999997 1.6499999999999997 0.0 -0.0 0.8509035245341184 0.5253219888177297
1_LTB 0.8598502615407084 0.3162481206867067 10.461914426500345 2.1999999999999997 1.6499999999999997 1.6499999999999997 0.0 -0.0 0.8509035245341184 0.5253219888177297
1_RTB 10.859850261540709 0.3162481206867067 10.461914426500345 2.1999999999999997 1.6499999999999997 1.6499999999999997 0.0 -0.0 0.8509035245341184 0.5253219888177297
1_RBB 10.859850261540709 10.316248120686707 10.461914426500345 2.1999999999999997 1.6499999999999997 1.6499999999999997 0.0 -0.0 0.8509035245341184 0.5253219888177297
1_LBB 0.8598502615407084 10.316248120686707 10.461914426500345 2.1999999999999997 1.6499999999999997 1.6499999999999997 0.0 -0.0 0.8509035245341184 0.5253219888177297
