ITEM: TIMESTEP
7
ITEM: NUMBER OF ATOMS
9
ITEM: BOX BOUNDS ff ff ff
0 10
10 0
10 0
ITEM: ATOMS id x y z AsphericalShapeX AsphericalShapeY AsphericalShapeZ OrientationX OrientationY OrientationZ OrientationW
1 0.9649625653851771 0.4540620301716767 0.6779786066250862 1.5999999999999999 1.2 1.2 0.0 -0.0 0.8509035245341184 0.5253219888177297
2 2.1339943875252243 1.9867926414219603 3.0809884632462943 1.5999999999999999 1.2 1.2 0.0 -0.0 0.8509035245341184 0.5253219888177297
1_RTF 10.964962565385177 0.4540620301716767 0.6779786066250862 1.5999999999999999 1.2 1.2 0.0 -0.0 0.8509035245341184 0.5253219888177297
1_RBF 10.964962565385177 10.454062030171677 0.6779786066250862 1.5999999999999999 1.2 1.2 0.0 -0.0 0.8509035245341184 0.5253219888177297
1_LBF 0.9649625653851771 10.454062030171677 0.6779786066250862 1.5999999999999999 1.2 1.2 0.0 -0.0 0.8509035245341184 0.5253219888177297
1_LTB 0.9649625653851771 0.4540620301716767 10.677978606625086 1.5999999999999999 1.2 1.2 0.0 -0.0 0.8509035245341184 0.5253219888177297
1_RTB 10.964962565385177 0.4540620301716767 10.677978606625086 1.5999999999999999 1.2 1.2 0.0 -0.0 0.8509035245341184 0.5253219888177297
1_RBB 10.964962565385177 10.454062030171677 10.677978606625086 1.5999999999999999 1.2 1.2 0.0 -0.0 0.8509035245341184 0.5253219888177297
1_LBB 0.9649625653851771 10.454062030171677 10.677978606625086 1.5999999999999999 1.2 1.2 0.0 -0.0 0.8509035245341184 0.5253219888177297
