ITEM: TIMESTEP
8
ITEM: NUMBER OF ATOMS
9
ITEM: BOX BOUNDS ff ff ff
0 10
10 0
10 0
ITEM: ATOMS id x y z AsphericalShapeX AsphericalShapeY AsphericalShapeZ OrientationX OrientationY OrientationZ OrientationW
1 0.9299251307703542 0.40812406034335336 0.6059572132501725 1.7999999999999998 1.3499999999999999 1.3499999999999999 0.0 -0.0 0.8509035245341184 0.5253219888177297
2 2.3679887750504487 2.293585282843921 3.5619769264925885 1.7999999999999998 1.3499999999999999 1.3499999999999999 0.0 -0.0 0.8509035245341184 0.5253219888177297
1_RTF 10.929925130770354 0.40812406034335336 0.6059572132501725 1.7999999999999998 1.3499999999999999 1.3499999999999999 0.0 -0.0 0.8509035245341184 0.5253219888177297
1_RBF 10.929925130770354 10.408124060343354 0.6059572132501725 1.7999999999999998 1.3499999999999999 1.3499999999999999 0.0 -0.0 0.8509035245341184 0.5253219888177297
1_LBF 0.9299251307703542 10.408124060343354 0.6059572132501725 1.7999999999999998 1.3499999999999999 1.3499999999999999 0.0 -0.0 0.8509035245341184 0.5253219888177297
1_LTB 0.9299251307703542 0.40812406034335336 10.605957213250173 1.7999999999999998 1.3499999999999999 1.3499999999999999 0.0 -0.0 0.8509035245341184 0.5253219888177297
1_RTB 10.929925130770354 0.40812406034335336 10.605957213250173 1.7999999999999998 1.3499999999999999 1.3499999999999999 0.0 -0.0 0.8509035245341184 0.5253219888177297
1_RBB 10.929925130770354 10.408124060343354 10.605957213250173 1.7999999999999998 1.3499999999999999 1.3499999999999999 0.0 -0.0 0.8509035245341184 0.5253219888177297
1_LBB 0.9299251307703542 10.408124060343354 10.605957213250173 1.7999999999999998 1.3499999999999999 1.3499999999999999 0.0 -0.0 0.8509035245341184 0.5253219888177297
