ITEM: TIMESTEP
5
ITEM: NUMBER OF ATOMS
5
ITEM: BOX BOUNDS ff ff ff
0 10
10 0
10 0
ITEM: ATOMS id x y z AsphericalShapeX AsphericalShapeY AsphericalShapeZ OrientationX OrientationY OrientationZ OrientationW
1 1.0 0.5 0.75 1.2 0.9 0.9 0.0 -0.0 0.8509035245341184 0.5253219888177297
2 1.9 1.68 2.6 1.2 0.9 0.9 0.0 -0.0 0.8509035245341184 0.5253219888177297
1_FB 1.0 10.5 0.75 1.2 0.9 0.9 0.0 -0.0 0.8509035245341184 0.5253219888177297
1_BT 1.0 0.5 10.75 1.2 0.9 0.9 0.0 -0.0 0.8509035245341184 0.5253219888177297
1_BB 1.0 10.5 10.75 1.2 0.9 0.9 0.0 -0.0 0.8509035245341184 0.5253219888177297
