ITEM: TIMESTEP
1
ITEM: NUMBER OF ATOMS
2
ITEM: BOX BOUNDS ff ff ff
0 10
10 0
10 0
ITEM: ATOMS id x y z AsphericalShapeX AsphericalShapeY AsphericalShapeZ OrientationX OrientationY OrientationZ OrientationW
1 1.0 0.5 0.75 0.4 0.3 0.3 0.0 -0.0 0.8509035245341184 0.5253219888177297
2 1.9 1.68 2.6 0.4 0.3 0.3 0.0 -0.0 0.8509035245341184 0.5253219888177297
