ITEM: TIMESTEP
6
ITEM: NUMBER OF ATOMS
9
ITEM: BOX BOUNDS ff ff ff
0 10
10 0
10 0
ITEM: ATOMS id x y z AsphericalShapeX AsphericalShapeY AsphericalShapeZ OrientationX OrientationY OrientationZ OrientationW
1 1.0 0.5 0.75 1.4 1.05 1.05 0.0 -0.0 0.8509035245341184 0.5253219888177297
2 1.9 1.68 2.6 1.4 1.05 1.05 0.0 -0.0 0.8509035245341184 0.5253219888177297
1_RTF 11.0 0.5 0.75 1.4 1.05 1.05 0.0 -0.0 0.8509035245341184 0.5253219888177297
1_RBF 11.0 10.5 0.75 1.4 1.05 1.05 0.0 -0.0 0.8509035245341184 0.5253219888177297
1_LBF 1.0 10.5 0.75 1.4 1.05 1.05 0.0 -0.0 0.8509035245341184 0.5253219888177297
1_LTB 1.0 0.5 10.75 1.4 1.05 1.05 0.0 -0.0 0.8509035245341184 0.5253219888177297
1_RTB 11.0 0.5 10.75 1.4 1.05 1.05 0.0 -0.0 0.8509035245341184 0.5253219888177297
1_RBB 11.0 10.5 10.75 1.4 1.05 1.05 0.0 -0.0 0.8509035245341184 0.5253219888177297
1_LBB 1.0 10.5 10.75 1.4 1.05 1.05 0.0 -0.0 0.8509035245341184 0.5253219888177297
